data_I
loop_
 _publ_author_name
 _publ_author_address
 'Likhacheva, A.Yu.'
; Sobolev Institute of Geology and Mineralogy SB RAS
3 Koptyuga Avenue
630090 Novosibirsk
RUSSIA
;
 'Rashchenko, S.V.'
; Sobolev Institute of Geology and Mineralogy SB RAS
3 Koptyuga Avenue
630090 Novosibirsk
RUSSIA
Novosibirsk State University
1 Pirogova Street
630090 Novosibirsk
RUSSIA
;
 'Musiyachenko, K.A.'
; Sobolev Institute of Geology and Mineralogy SB RAS
3 Koptyuga Avenue
630090 Novosibirsk
RUSSIA
;
 'Korsakov, A.V.'
; Sobolev Institute of Geology and Mineralogy SB RAS
3 Koptyuga Avenue
630090 Novosibirsk
RUSSIA
;
 'Collings, I.E.'
; European Synchrotron Radiation Facility
71 Avenue des Martyrs
38000 Grenoble
FRANCE
;
 'Hanfland, M'
; European Synchrotron Radiation Facility
71 Avenue des Martyrs
38000 Grenoble
FRANCE
;
_publ_section_title
; Compressibility and structure behaviour of maruyamaite (K-tourmaline)
from the Kokchetav massif at high pressure up to 20 GPa
;
_publ_section_abstract
;
The structural behaviour of maruyamaite (K-dominant tourmaline)
X(K0.54Na0.28Ca0.19)Y(Mg1.3Al1.17Fe0.39Ti0.14)Z(Al5Mg)
[Si5.95Al0.05O18](BO3)3(O0.23(OH)0.77)3O
from the ultrahigh-pressure metamorphic rocks of Kokchetav massif
was studied using synchrotron based single-crystal diffraction up to 20 GPa.
Within the whole pressure range the compression is regular and anisotropic,
with the c direction being more compressible than the a direction.
Fitting the V/P data with the 2nd and 3rd order
Birch-Murnaghan equations of state gives: V0 =1587.2(7) A3, K0 = 115.6(9) GPa
at fixed K'= 4, and V0 =1588(1) A3, K0 = 112(3) GPa, K' = 4.5(4).
The bulk modulus values are slightly higher as compared to those
found for dravite and cation-deficient synthetic K-dravite.
The pressure evolution of the main structural parameters of K-tourmaline
is similar to those of dravite. However, a minor change in the rigidity
of local contacts of the X site with 6-membered ring, due to the presence of K,
is apparently critical for stabilization of tourmaline structure
within 15-20 GPa, which is evinced by the absence of the phase transition
observed in dravite near 15.4 GPa. The stabilizing function of K
becomes apparent at P > 15 GPa. The comparison of the HP structural behaviour
of maruyamaite and dravite supports the recent suggestion that the large X site
plays a secondary role in the elastic behaviour of tourmaline,
compared to the octahedral framework. In addition, the present study reveals
several new features of polyhedra distortions, which demonstrate
their complex interaction on compression.
;
_publ_requested_journal                  'Mineralogy and Petrology'
_publ_contact_author_name                'Likhacheva, A.Yu'
_publ_contact_author_email               alih@igm.nsc.ru
_publ_contact_author_address
; Sobolev Institute of Geology and Mineralogy SB RAS
3 Koptyuga Avenue
630090 Novosibirsk
RUSSIA
;
_chemical_name_mineral                   maruyamaite
_chemical_formula_sum
'Al6.22 B3 Ca0.19 Fe0.39 H2.31 K0.54 Mg2.3 Na0.28 O31 Si5.95 Ti0.14'
_chemical_formula_weight                 985.2
_chemical_compound_source                'Kokchetav Massif (Kumdy-Kol area, northern Kazakhstan)'
_chemical_absolute_configuration         unk
_symmetry_cell_setting                   trigonal
_symmetry_space_group_name_H-M           'R 3 m'
_symmetry_space_group_name_Hall          'R 3;-2"'
_symmetry_Int_Tables_number              160
loop_
 _space_group_symop_id
 _space_group_symop_operation_xyz
 1   x,y,z
 2   -y,x-y,z
 3   -x+y,-x,z
 4   -y,-x,z
 5   -x+y,y,z
 6   x,x-y,z
 7   x+2/3,y+1/3,z+1/3
 8   -y+2/3,x-y+1/3,z+1/3
 9   -x+y+2/3,-x+1/3,z+1/3
 10  -y+2/3,-x+1/3,z+1/3
 11  -x+y+2/3,y+1/3,z+1/3
 12  x+2/3,x-y+1/3,z+1/3
 13  x+1/3,y+2/3,z+2/3
 14  -y+1/3,x-y+2/3,z+2/3
 15  -x+y+1/3,-x+2/3,z+2/3
 16  -y+1/3,-x+2/3,z+2/3
 17  -x+y+1/3,y+2/3,z+2/3
 18  x+1/3,x-y+2/3,z+2/3
_cell_length_a                           15.558(3)
_cell_length_b                           15.558(3)
_cell_length_c                           6.8158(14)
_cell_angle_alpha                        90
_cell_angle_beta                         90
_cell_angle_gamma                        120
_cell_volume                             1428.7(5)
_cell_formula_units_Z                    3
_cell_measurement_reflns_used            436
_cell_measurement_theta_min              2.62
_cell_measurement_theta_max              19.93
_cell_measurement_temperature            293
_exptl_crystal_density_diffrn            3.4352
_exptl_crystal_F_000                     1428
_exptl_absorpt_coefficient_mu            0.331
_exptl_crystal_description               platelet
_exptl_crystal_size_max                  0.040
_exptl_crystal_size_mid                  0.035
_exptl_crystal_size_min                  0.020
_exptl_crystal_colour                    brownish
_exptl_absorpt_correction_type           'multi-scan'
_exptl_absorpt_process_details
;
CrysAlisPro 1.171.39.46 (Rigaku Oxford Diffraction, 2018)
Empirical absorption correction using spherical harmonics,
 implemented in SCALE3 ABSPACK scaling algorithm.
;
_exptl_absorpt_correction_T_min          0.995
_exptl_absorpt_correction_T_max          1
_diffrn_ambient_temperature              293
_diffrn_ambient_pressure                 15170000
_diffrn_source                           'ESRF ID15B'
_diffrn_radiation_type                   'synchrotron'
_diffrn_radiation_wavelength             0.41122
_diffrn_radiation_monochromator          'Si(111) Bragg'
_diffrn_detector                         'MAR555 flat panel'
_diffrn_detector_area_resol_mean         7.2
_diffrn_measurement_device               'one-axis goniometer'
_diffrn_measurement_method               '\f scans'
_diffrn_reflns_number                    993
_diffrn_reflns_theta_min                 1.51
_diffrn_reflns_theta_max                 21.08
_diffrn_reflns_theta_full                15.91
_diffrn_measured_fraction_theta_max      0.38
_diffrn_measured_fraction_theta_full     0.63
_diffrn_reflns_av_R_equivalents          0.0213
_diffrn_reflns_av_unetI/netI             0.0284
_diffrn_reflns_limit_h_min               -20
_diffrn_reflns_limit_h_max               20
_diffrn_reflns_limit_k_min               -18
_diffrn_reflns_limit_k_max               21
_diffrn_reflns_limit_l_min               -8
_diffrn_reflns_limit_l_max               7
_diffrn_radiation_probe                  X-ray
_refine_special_details
; Electron density of each mixed site was approximated by
corresponding occupancy of its major constituent
(0.79K for X, 0.95Si for T, 0.96Al for Z, 1.20Mg for Y).
;
_reflns_special_details
; Reflections outside DAC opening angle were omitted
during integration in CrysAlisPro software.
;
_reflns_number_total                     579
_reflns_number_gt                        565
_reflns_threshold_expression             'I>3\s(I)'
_refine_ls_structure_factor_coef         F
_refine_ls_R_factor_gt                   0.0225
_refine_ls_wR_factor_gt                  0.0274
_refine_ls_R_factor_all                  0.0235
_refine_ls_wR_factor_ref                 0.0279
_refine_ls_goodness_of_fit_ref           1.44
_refine_ls_goodness_of_fit_gt            1.43
_refine_ls_number_reflns                 579
_refine_ls_number_parameters             87
_refine_ls_number_restraints             0
_refine_ls_number_constraints            1
_refine_ls_weighting_scheme              sigma
_refine_ls_weighting_details             'w=1/(\s^2^(F)+0.0001F^2^)'
_refine_ls_hydrogen_treatment            'constr'
_refine_ls_shift/su_max                  0.0311
_refine_ls_shift/su_mean                 0.0021
_refine_diff_density_max                 0.27
_refine_diff_density_min                 -0.43
_refine_ls_extinction_method             'none'
loop_
 _atom_type_symbol
 _atom_type_scat_dispersion_real
 _atom_type_scat_dispersion_imag
 _atom_type_scat_source
 Al   0.0199  0.0165
 'International Tables Vol C tables 4.2.6.8 and 6.1.1.1'
 B   -0.0004  0.0002
 'International Tables Vol C tables 4.2.6.8 and 6.1.1.1'
 Ca   0.0951  0.1050
 'International Tables Vol C tables 4.2.6.8 and 6.1.1.1'
 Fe   0.1968  0.3058
 'International Tables Vol C tables 4.2.6.8 and 6.1.1.1'
 H    0.0000  0.0000
 'International Tables Vol C tables 4.2.6.8 and 6.1.1.1'
 K    0.0805  0.0845
 'International Tables Vol C tables 4.2.6.8 and 6.1.1.1'
 Mg   0.0142  0.0116
 'International Tables Vol C tables 4.2.6.8 and 6.1.1.1'
 Na   0.0096  0.0078
 'International Tables Vol C tables 4.2.6.8 and 6.1.1.1'
 O    0.0018  0.0018
 'International Tables Vol C tables 4.2.6.8 and 6.1.1.1'
 Si   0.0267  0.0229
 'International Tables Vol C tables 4.2.6.8 and 6.1.1.1'
 Ti   0.1267  0.1560
 'International Tables Vol C tables 4.2.6.8 and 6.1.1.1'
_computing_data_collection
 'CrysAlisPro 1.171.39.46 (Rigaku OD, 2018)'
_computing_cell_refinement
 'CrysAlisPro 1.171.39.46 (Rigaku OD, 2018)'
_computing_data_reduction
 'CrysAlisPro 1.171.39.46 (Rigaku OD, 2018)'
_computing_structure_solution            'SUPERFLIP (Palatinus & Chapuis, 2007)'
_computing_structure_refinement          'JANA2006 (Petricek et al., 2014)'
loop_
 _atom_site_label
 _atom_site_type_symbol
 _atom_site_fract_x
 _atom_site_fract_y
 _atom_site_fract_z
 _atom_site_adp_type
 _atom_site_U_iso_or_equiv
 _atom_site_site_symmetry_multiplicity
 _atom_site_occupancy
 _atom_site_calc_flag
 _atom_site_refinement_flags
 _atom_site_disorder_assembly
 _atom_site_disorder_group
  X K 0 0 0.2081(4) Uani 0.0161(6) 3 0.79 d . . .
  T Si 0.19213(5) 0.19007(5) 0.012901 Uani 0.0036(3) 18 0.949 d . . .
  Z Al 0.29517(6) 0.25934(6) 0.6116(2) Uani 0.0049(3) 18 0.961 d . . .
  B B 0.10907(16) 0.2181(3) 0.4474(8) Uani 0.0084(15) 9 1 d . . .
  Y Mg 0.12201(9) 0.06100(4) 0.6337(3) Uani 0.0080(4) 9 1.2 d . . .
  O1 O -0.00864(15) 0.18231(14) -0.2191(4) Uani 0.0088(8) 18 1 d . . .
  O2 O -0.01034(15) 0.28130(15) 0.0905(4) Uani 0.0097(8) 18 1 d . . .
  O3 O 0.06066(16) 0.27009(15) 0.4387(4) Uani 0.0102(9) 18 1 d . . .
  O4 O 0.05927(10) -0.05927(10) 0.4786(6) Uani 0.0123(12) 9 1 d . . .
  O5 O 0 0 0.7916(9) Uani 0.0128(16) 3 1 d . . .
  O6 O -0.1958(2) -0.09791(11) 0.0934(5) Uani 0.0102(10) 9 1 d . . .
  O7 O 0.24426(12) 0.4885(2) -0.2184(5) Uani 0.0116(11) 9 1 d . . .
  O8 O 0.20186(13) 0.4037(3) 0.1669(5) Uani 0.0146(12) 9 1 d . . .
loop_
 _atom_site_aniso_label
 _atom_site_aniso_type_symbol
 _atom_site_aniso_U_11
 _atom_site_aniso_U_22
 _atom_site_aniso_U_33
 _atom_site_aniso_U_12
 _atom_site_aniso_U_13
 _atom_site_aniso_U_23
 X K 0.0126(6) 0.0126(6) 0.0230(15) 0.0063(3) 0 0
 T Si 0.0026(4) 0.0021(3) 0.0057(4) 0.0009(3) -0.0001(3) -0.0005(3)
 Z Al 0.0039(4) 0.0044(4) 0.0062(5) 0.0019(3) -0.0003(3) 0.0007(3)
 B B 0.0058(14) 0.009(2) 0.011(3) 0.0047(10) 0.0001(7) 0.0002(14)
 Y Mg 0.0066(5) 0.0040(4) 0.0141(8) 0.0033(3) -0.0039(4) -0.0020(2)
 O1 O 0.0096(10) 0.0096(10) 0.0072(14) 0.0048(8) -0.0005(7) -0.0020(7)
 O2 O 0.0123(10) 0.0083(9) 0.0101(13) 0.0063(8) 0.0004(9) -0.0014(8)
 O3 O 0.0098(10) 0.0099(11) 0.0139(12) 0.0072(8) 0.0024(7) 0.0023(7)
 O4 O 0.0122(11) 0.0122(11) 0.016(2) 0.0085(12) 0.0002(5) -0.0002(5)
 O5 O 0.0120(16) 0.0120(16) 0.014(4) 0.0060(8) 0 0
 O6 O 0.0133(15) 0.0084(10) 0.0105(18) 0.0066(7) 0.0018(11) 0.0009(5)
 O7 O 0.0095(9) 0.0178(16) 0.0103(19) 0.0089(8) -0.0018(6) -0.0036(12)
 O8 O 0.0131(12) 0.0271(18) 0.008(2) 0.0135(9) 0.0004(6) 0.0009(13)
loop_
 _geom_bond_atom_site_label_1
 _geom_bond_atom_site_label_2
 _geom_bond_site_symmetry_1
 _geom_bond_site_symmetry_2
 _geom_bond_distance
 _geom_bond_publ_flag
  X T . . 3.257(2) ?
  X T . 2_555 3.2572(17) ?
  X T . 3_555 3.2572(17) ?
  X T . 4_555 3.257(2) ?
  X T . 5_555 3.2572(17) ?
  X T . 6_555 3.2572(17) ?
  X Y . . 3.334(3) ?
  X Y . 2_555 3.334(3) ?
  X Y . 3_555 3.334(3) ?
  X O4 . . 2.439(4) ?
  X O4 . 2_555 2.439(4) ?
  X O4 . 3_555 2.439(4) ?
  X O5 . 1_554 2.838(7) ?
  X O6 . . 2.752(3) ?
  X O6 . 2_555 2.752(4) ?
  X O6 . 3_555 2.752(3) ?
  X O7 . 7_445 2.483(3) ?
  X O7 . 8_555 2.483(3) ?
  X O7 . 9_455 2.483(4) ?
  T O1 . 5_555 1.586(3) ?
  T O2 . 5_555 1.579(2) ?
  T O6 . 3_555 1.609(4) ?
  T O7 . 8_555 1.630(4) ?
  Z Z . 8_555 2.8538(19) ?
  Z Z . 15_554 2.854(2) ?
  Z Y . . 2.9136(19) ?
  B O3 . . 1.354(6) ?
  B O3 . 5_555 1.354(4) ?
  B O4 . 2_555 1.359(5) ?
  Y Y . 2_555 2.847(2) ?
  Y Y . 3_555 2.847(2) ?
  Y O1 . 3_556 1.922(4) ?
  Y O1 . 5_556 1.922(2) ?
  Y O4 . . 1.935(3) ?
  Y O4 . 2_555 1.935(3) ?
  Y O5 . . 1.965(4) ?
  Y O8 . 8_555 2.106(4) ?
loop_
 _geom_angle_atom_site_label_1
 _geom_angle_atom_site_label_2
 _geom_angle_atom_site_label_3
 _geom_angle_site_symmetry_1
 _geom_angle_site_symmetry_2
 _geom_angle_site_symmetry_3
 _geom_angle
 _geom_angle_publ_flag
  T X T . . 2_555 104.47(5) ?
  T X T . . 3_555 104.47(5) ?
  T X T . . 4_555 131.78(8) ?
  T X T . . 5_555 55.26(3) ?
  T X T . . 6_555 53.36(3) ?
  T X Y . . . 87.91(3) ?
  T X Y . . 2_555 111.07(4) ?
  T X Y . . 3_555 137.98(6) ?
  T X O4 . . . 107.64(4) ?
  T X O4 . . 2_555 78.10(6) ?
  T X O4 . . 3_555 146.00(7) ?
  T X O5 . . 1_554 65.90(4) ?
  T X O6 . . . 130.24(9) ?
  T X O6 . . 2_555 82.87(7) ?
  T X O6 . . 3_555 29.56(9) ?
  T X O7 . . 7_445 130.97(10) ?
  T X O7 . . 8_555 29.22(10) ?
  T X O7 . . 9_455 84.48(7) ?
  T X T 2_555 . 3_555 104.47(5) ?
  T X T 2_555 . 4_555 55.26(3) ?
  T X T 2_555 . 5_555 53.36(3) ?
  T X T 2_555 . 6_555 131.78(8) ?
  T X Y 2_555 . . 137.98(6) ?
  T X Y 2_555 . 2_555 87.91(3) ?
  T X Y 2_555 . 3_555 111.07(4) ?
  T X O4 2_555 . . 146.00(7) ?
  T X O4 2_555 . 2_555 107.64(6) ?
  T X O4 2_555 . 3_555 78.10(7) ?
  T X O5 2_555 . 1_554 65.90(4) ?
  T X O6 2_555 . . 29.56(5) ?
  T X O6 2_555 . 2_555 130.24(9) ?
  T X O6 2_555 . 3_555 82.87(9) ?
  T X O7 2_555 . 7_445 84.48(8) ?
  T X O7 2_555 . 8_555 130.97(12) ?
  T X O7 2_555 . 9_455 29.22(6) ?
  T X T 3_555 . 4_555 53.36(3) ?
  T X T 3_555 . 5_555 131.78(8) ?
  T X T 3_555 . 6_555 55.26(3) ?
  T X Y 3_555 . . 111.07(4) ?
  T X Y 3_555 . 2_555 137.98(6) ?
  T X Y 3_555 . 3_555 87.91(4) ?
  T X O4 3_555 . . 78.10(6) ?
  T X O4 3_555 . 2_555 146.00(9) ?
  T X O4 3_555 . 3_555 107.64(5) ?
  T X O5 3_555 . 1_554 65.90(4) ?
  T X O6 3_555 . . 82.87(7) ?
  T X O6 3_555 . 2_555 29.56(5) ?
  T X O6 3_555 . 3_555 130.24(11) ?
  T X O7 3_555 . 7_445 29.22(6) ?
  T X O7 3_555 . 8_555 84.48(10) ?
  T X O7 3_555 . 9_455 130.97(10) ?
  T X T 4_555 . 5_555 104.47(5) ?
  T X T 4_555 . 6_555 104.47(5) ?
  T X Y 4_555 . . 137.98(6) ?
  T X Y 4_555 . 2_555 111.07(4) ?
  T X Y 4_555 . 3_555 87.91(3) ?
  T X O4 4_555 . . 107.64(4) ?
  T X O4 4_555 . 2_555 146.00(7) ?
  T X O4 4_555 . 3_555 78.10(6) ?
  T X O5 4_555 . 1_554 65.90(4) ?
  T X O6 4_555 . . 29.56(6) ?
  T X O6 4_555 . 2_555 82.87(6) ?
  T X O6 4_555 . 3_555 130.24(10) ?
  T X O7 4_555 . 7_445 29.22(7) ?
  T X O7 4_555 . 8_555 130.97(11) ?
  T X O7 4_555 . 9_455 84.48(7) ?
  T X T 5_555 . 6_555 104.47(5) ?
  T X Y 5_555 . . 111.07(4) ?
  T X Y 5_555 . 2_555 87.91(4) ?
  T X Y 5_555 . 3_555 137.98(6) ?
  T X O4 5_555 . . 146.00(7) ?
  T X O4 5_555 . 2_555 78.10(7) ?
  T X O4 5_555 . 3_555 107.64(6) ?
  T X O5 5_555 . 1_554 65.90(4) ?
  T X O6 5_555 . . 82.87(6) ?
  T X O6 5_555 . 2_555 130.24(10) ?
  T X O6 5_555 . 3_555 29.56(9) ?
  T X O7 5_555 . 7_445 130.97(11) ?
  T X O7 5_555 . 8_555 84.48(11) ?
  T X O7 5_555 . 9_455 29.22(7) ?
  T X Y 6_555 . . 87.91(4) ?
  T X Y 6_555 . 2_555 137.98(6) ?
  T X Y 6_555 . 3_555 111.07(4) ?
  T X O4 6_555 . . 78.10(6) ?
  T X O4 6_555 . 2_555 107.64(5) ?
  T X O4 6_555 . 3_555 146.00(9) ?
  T X O5 6_555 . 1_554 65.90(4) ?
  T X O6 6_555 . . 130.24(10) ?
  T X O6 6_555 . 2_555 29.56(6) ?
  T X O6 6_555 . 3_555 82.87(10) ?
  T X O7 6_555 . 7_445 84.48(7) ?
  T X O7 6_555 . 8_555 29.22(10) ?
  T X O7 6_555 . 9_455 130.97(11) ?
  Y X Y . . 2_555 50.55(5) ?
  Y X Y . . 3_555 50.55(5) ?
  Y X O4 . . . 35.02(6) ?
  Y X O4 . . 2_555 35.02(7) ?
  Y X O4 . . 3_555 70.44(10) ?
  Y X O5 . . 1_554 150.46(3) ?
  Y X O6 . . . 136.04(10) ?
  Y X O6 . . 2_555 90.62(7) ?
  Y X O6 . . 3_555 90.62(8) ?
  Y X O7 . . 7_445 117.44(10) ?
  Y X O7 . . 8_555 75.28(9) ?
  Y X O7 . . 9_455 117.44(9) ?
  Y X Y 2_555 . 3_555 50.55(5) ?
  Y X O4 2_555 . . 70.44(10) ?
  Y X O4 2_555 . 2_555 35.02(6) ?
  Y X O4 2_555 . 3_555 35.02(6) ?
  Y X O5 2_555 . 1_554 150.46(3) ?
  Y X O6 2_555 . . 90.62(8) ?
  Y X O6 2_555 . 2_555 136.04(10) ?
  Y X O6 2_555 . 3_555 90.62(9) ?
  Y X O7 2_555 . 7_445 117.44(9) ?
  Y X O7 2_555 . 8_555 117.44(10) ?
  Y X O7 2_555 . 9_455 75.28(9) ?
  Y X O4 3_555 . . 35.02(6) ?
  Y X O4 3_555 . 2_555 70.44(10) ?
  Y X O4 3_555 . 3_555 35.02(8) ?
  Y X O5 3_555 . 1_554 150.46(3) ?
  Y X O6 3_555 . . 90.62(7) ?
  Y X O6 3_555 . 2_555 90.62(8) ?
  Y X O6 3_555 . 3_555 136.04(10) ?
  Y X O7 3_555 . 7_445 75.28(9) ?
  Y X O7 3_555 . 8_555 117.44(11) ?
  Y X O7 3_555 . 9_455 117.44(10) ?
  O4 X O4 . . 2_555 69.09(11) ?
  O4 X O4 . . 3_555 69.09(11) ?
  O4 X O5 . . 1_554 139.10(8) ?
  O4 X O6 . . . 121.91(8) ?
  O4 X O6 . . 2_555 65.60(10) ?
  O4 X O6 . . 3_555 121.91(9) ?
  O4 X O7 . . 7_445 82.92(9) ?
  O4 X O7 . . 8_555 82.92(11) ?
  O4 X O7 . . 9_455 145.72(14) ?
  O4 X O4 2_555 . 3_555 69.09(10) ?
  O4 X O5 2_555 . 1_554 139.10(8) ?
  O4 X O6 2_555 . . 121.91(9) ?
  O4 X O6 2_555 . 2_555 121.91(9) ?
  O4 X O6 2_555 . 3_555 65.60(10) ?
  O4 X O7 2_555 . 7_445 145.72(14) ?
  O4 X O7 2_555 . 8_555 82.92(10) ?
  O4 X O7 2_555 . 9_455 82.92(9) ?
  O4 X O5 3_555 . 1_554 139.10(8) ?
  O4 X O6 3_555 . . 65.60(10) ?
  O4 X O6 3_555 . 2_555 121.91(9) ?
  O4 X O6 3_555 . 3_555 121.91(10) ?
  O4 X O7 3_555 . 7_445 82.92(9) ?
  O4 X O7 3_555 . 8_555 145.72(14) ?
  O4 X O7 3_555 . 9_455 82.92(10) ?
  O5 X O6 1_554 . . 73.50(9) ?
  O5 X O6 1_554 . 2_555 73.49(9) ?
  O5 X O6 1_554 . 3_555 73.49(9) ?
  O5 X O7 1_554 . 7_445 75.18(10) ?
  O5 X O7 1_554 . 8_555 75.18(10) ?
  O5 X O7 1_554 . 9_455 75.18(10) ?
  O6 X O6 . . 2_555 112.27(9) ?
  O6 X O6 . . 3_555 112.27(11) ?
  O6 X O7 . . 7_445 57.58(8) ?
  O6 X O7 . . 8_555 148.68(15) ?
  O6 X O7 . . 9_455 57.58(7) ?
  O6 X O6 2_555 . 3_555 112.27(12) ?
  O6 X O7 2_555 . 7_445 57.58(8) ?
  O6 X O7 2_555 . 8_555 57.58(11) ?
  O6 X O7 2_555 . 9_455 148.68(15) ?
  O6 X O7 3_555 . 7_445 148.68(15) ?
  O6 X O7 3_555 . 8_555 57.58(14) ?
  O6 X O7 3_555 . 9_455 57.58(11) ?
  O7 X O7 7_445 . 8_555 113.70(12) ?
  O7 X O7 7_445 . 9_455 113.70(10) ?
  O7 X O7 8_555 . 9_455 113.70(13) ?
  X T O1 . . 5_555 111.58(8) ?
  X T O2 . . 5_555 136.18(10) ?
  X T O6 . . 3_555 57.54(11) ?
  X T O7 . . 8_555 48.03(13) ?
  O1 T O2 5_555 . 5_555 111.80(12) ?
  O1 T O6 5_555 . 3_555 111.59(18) ?
  O1 T O7 5_555 . 8_555 111.16(16) ?
  O2 T O6 5_555 . 3_555 110.30(16) ?
  O2 T O7 5_555 . 8_555 108.78(16) ?
  O6 T O7 3_555 . 8_555 102.83(18) ?
  Z Z Z 8_555 . 15_554 116.79(5) ?
  Z Z Y 8_555 . . 123.91(6) ?
  Z Z Y 15_554 . . 114.26(5) ?
  O3 B O3 . . 5_555 117.5(4) ?
  O3 B O4 . . 2_555 121.2(2) ?
  O3 B O4 5_555 . 2_555 121.2(4) ?
  X Y Z . . . 110.49(5) ?
  X Y Z . . 6_555 110.49(6) ?
  X Y Y . . 2_555 64.72(5) ?
  X Y Y . . 3_555 64.72(5) ?
  X Y O1 . . 3_556 133.82(9) ?
  X Y O1 . . 5_556 133.82(10) ?
  X Y O4 . . . 46.32(9) ?
  X Y O4 . . 2_555 46.32(10) ?
  X Y O5 . . . 93.68(16) ?
  X Y O8 . . 8_555 93.95(12) ?
  Z Y Z . . 6_555 73.27(4) ?
  Z Y Y . . 2_555 113.27(5) ?
  Z Y Y . . 3_555 172.69(7) ?
  Z Y O1 . . 3_556 93.40(8) ?
  Z Y O1 . . 5_556 38.78(8) ?
  Z Y O4 . . . 138.43(11) ?
  Z Y O4 . . 2_555 83.98(6) ?
  Z Y O5 . . . 134.28(11) ?
  Z Y O8 . . 8_555 41.89(13) ?
  Z Y Y 6_555 . 2_555 172.69(5) ?
  Z Y Y 6_555 . 3_555 113.27(5) ?
  Z Y O1 6_555 . 3_556 38.78(9) ?
  Z Y O1 6_555 . 5_556 93.40(11) ?
  Z Y O4 6_555 . . 83.98(7) ?
  Z Y O4 6_555 . 2_555 138.43(11) ?
  Z Y O5 6_555 . . 134.28(11) ?
  Z Y O8 6_555 . 8_555 41.89(14) ?
  Y Y Y 2_555 . 3_555 60.00(5) ?
  Y Y O1 2_555 . 3_556 140.35(11) ?
  Y Y O1 2_555 . 5_556 93.85(12) ?
  Y Y O4 2_555 . . 88.80(8) ?
  Y Y O4 2_555 . 2_555 42.64(9) ?
  Y Y O5 2_555 . . 43.57(11) ?
  Y Y O8 2_555 . 8_555 141.36(15) ?
  Y Y O1 3_555 . 3_556 93.85(7) ?
  Y Y O1 3_555 . 5_556 140.35(11) ?
  Y Y O4 3_555 . . 42.64(8) ?
  Y Y O4 3_555 . 2_555 88.80(7) ?
  Y Y O5 3_555 . . 43.57(11) ?
  Y Y O8 3_555 . 8_555 141.36(13) ?
  O1 Y O1 3_556 . 5_556 89.31(13) ?
  O1 Y O4 3_556 . . 89.65(11) ?
  O1 Y O4 3_556 . 2_555 176.92(11) ?
  O1 Y O5 3_556 . . 96.80(15) ?
  O1 Y O8 3_556 . 8_555 77.85(16) ?
  O1 Y O4 5_556 . . 176.92(14) ?
  O1 Y O4 5_556 . 2_555 89.65(13) ?
  O1 Y O5 5_556 . . 96.80(15) ?
  O1 Y O8 5_556 . 8_555 77.85(14) ?
  O4 Y O4 . . 2_555 91.24(13) ?
  O4 Y O5 . . . 86.21(13) ?
  O4 Y O8 . . 8_555 99.09(15) ?
  O4 Y O5 2_555 . . 86.21(14) ?
  O4 Y O8 2_555 . 8_555 99.09(16) ?
  O5 Y O8 . . 8_555 172.4(2) ?
  T O1 Y 5_555 . 2_554 125.09(14) ?
  X O4 B . . 3_555 121.9(3) ?
  X O4 Y . . . 98.66(9) ?
  X O4 Y . . 3_555 98.66(10) ?
  B O4 Y 3_555 . . 118.7(2) ?
  B O4 Y 3_555 . 3_555 118.7(2) ?
  Y O4 Y . . 3_555 94.72(16) ?
  X O5 Y 1_556 . . 123.22(16) ?
  X O5 Y 1_556 . 2_555 123.22(16) ?
  X O5 Y 1_556 . 3_555 123.22(16) ?
  Y O5 Y . . 2_555 92.9(2) ?
  Y O5 Y . . 3_555 92.9(2) ?
  Y O5 Y 2_555 . 3_555 92.9(2) ?
  X O6 T . . 2_555 92.90(9) ?
  X O6 T . . 4_555 92.90(16) ?
  T O6 T 2_555 . 4_555 139.7(2) ?
  X O7 T 13_554 . 15_554 102.75(9) ?
  X O7 T 13_554 . 16_554 102.75(18) ?
  T O7 T 15_554 . 16_554 127.6(2) ?
loop_
 _refln_index_h
 _refln_index_k
 _refln_index_l
 _refln_F_squared_calc
 _refln_F_squared_meas
 _refln_F_squared_sigma
 _refln_observed_status
  -1   2   0    89.42    46.22     4.57 o
   0   3   0  8034.16  7657.04   138.43 o
  -1   5   0  8810.17  8864.84   124.25 o
  -4   5   0  8787.71  8822.01   177.92 o
   0   6   0  8898.18  8255.39   183.43 o
  -2   7   0   866.88   851.43    53.44 o
  -5   7   0   849.90   816.27    52.11 o
  -4   8   0  9036.93  9056.64   210.13 o
  -1   8   0  1747.25  1936.37    89.58 o
  -7   8   0  1761.13  1647.88    59.15 o
  -3   9   0   762.43   832.01    59.30 o
  -6   9   0   749.64   875.63    43.84 o
  -5  10   0 80257.90 78377.50   779.29 o
  -7  11   0 17769.70 17492.50   367.62 o
  -1  11   0 42927.50 41992.50   692.10 o
  -6  12   0 43335.60 40429.90   677.33 o
  -9  12   0 18777.10 18278.80   280.18 o
 -12  12   0  4832.86  4665.08   182.11 o
  -5  13   0  3470.16  3365.96   152.31 o
  -8  13   0  3457.83  3607.80   111.86 o
  -2  13   0  3836.09  3909.60   170.37 o
 -11  13   0  3856.17  3923.25   167.78 o
  -7  14   0   806.00   725.10    50.00 o
  -4  14   0   764.34   751.02    52.78 o
 -10  14   0   758.51   799.45    54.88 o
  -1  14   0   663.17   725.34    72.53 o
 -13  14   0   664.72   603.95    68.72 o
  -6  15   0  5812.50  6057.73   161.53 o
  -9  15   0  5829.91  5949.84   158.57 o
  -3  15   0   898.55   836.55    85.96 o
 -12  15   0   897.09   955.26    85.88 o
  -8  16   0  4337.90  4164.27   192.93 o
  -5  16   0  4992.87  4736.63   148.21 o
 -11  16   0  5000.85  5045.14   154.02 o
  -2  16   0  1055.66  1061.01    93.46 o
 -14  16   0  1057.43  1065.81    97.15 o
  -7  17   0   444.17   405.01    43.01 o
 -10  17   0   438.17   381.70    42.09 o
  -4  17   0  1966.30  1901.80   137.56 o
 -13  17   0  1964.30  2134.54   141.32 o
  -9  18   0  1485.51  1424.74    84.50 o
  -6  18   0   312.91   245.40    38.56 o
 -12  18   0   302.65   273.39    37.95 o
  -3  18   0  3981.01  4196.34   212.68 o
 -15  18   0  3984.70  4254.58   213.94 o
  -8  19   0  3677.09  3749.97   145.40 o
 -11  19   0  3679.61  3285.37   136.38 o
  -5  19   0   312.02   345.58    58.29 o
 -14  19   0   306.24   244.08    51.79 o
 -17  19   0    40.13     0.58     6.60 <
 -10  20   0  9245.40  8942.51   240.65 o
  -7  20   0  3170.47  3116.64   190.37 o
 -13  20   0  3169.98  3252.55   198.29 o
  -2   3   1 12178.00 11414.10   126.40 o
  -1   3  -1 12095.60 11281.10   125.40 o
  -4   4   1  1961.14  2291.70    72.21 o
   0   4  -1  1960.95  2437.27    72.65 o
  -1   4   1  2896.68  3274.74    91.69 o
  -3   5   1  6302.26  6365.99   146.10 o
  -2   5  -1  6260.29  6480.16   144.64 o
  -5   6   1 21224.50 21708.10   243.38 o
  -1   6  -1 21440.30 22393.80   250.26 o
  -7   7   1  2480.50  2923.60   106.43 o
  -4   7   1 15800.00 17032.00   312.82 o
  -1   7   1 13547.90 12757.30   262.87 o
  -6   8   1 13737.20 12978.20   246.90 o
  -5   8  -1  1214.24  1440.04    77.13 o
  -8   9   1  5564.52  5960.63    98.01 o
  -1   9  -1  5532.44  5926.44    98.61 o
  -5   9   1  2031.41  2278.76    72.24 o
  -2   9   1 19387.80 20270.70   386.87 o
 -10  10   1 68138.80 65976.00   680.29 o
  -7  10   1  2104.50  2130.74    69.88 o
  -3  10  -1  2098.32  2194.81   104.18 o
  -4  10   1 10268.30 10431.00   180.87 o
  -6  10  -1 10346.00 10257.80   252.76 o
  -9  10  -1  8299.97  8634.38   237.13 o
  -6  11   1 15079.70 14986.00   236.90 o
  -5  11  -1 15162.80 15432.90   338.11 o
 -11  12   1 16238.90 16266.80   210.02 o
  -1  12  -1 16303.10 16154.00   210.25 o
  -8  12   1  1967.15  1731.20   105.33 o
  -4  12  -1  1951.10  1984.33    78.16 o
  -5  12   1  5693.45  5418.35   195.23 o
  -7  12  -1  5628.10  5584.84   137.94 o
  -2  12   1  5512.11  5423.46   196.75 o
 -13  13   1  3633.07  3872.69   163.01 o
 -10  13   1  7205.68  7621.19   169.93 o
  -3  13  -1  7202.48  7148.17   230.03 o
  -7  13   1  1755.60  1681.23    74.87 o
  -4  13   1   951.41   991.07    58.57 o
  -9  13  -1   959.70   947.55    57.04 o
 -12  13  -1    34.45    10.20    12.03 <
 -12  14   1  5096.94  5117.76   143.97 o
  -2  14  -1  5068.56  4901.82   141.50 o
  -9  14   1  3214.52  3225.65   156.16 o
  -5  14  -1  3192.39  3213.54   109.81 o
  -6  14   1  2319.64  1966.36   120.54 o
  -8  14  -1  2338.42  2366.23    93.64 o
  -3  14   1  4785.69  4794.24   196.38 o
 -11  14  -1  4771.70  4460.71   193.18 o
 -14  15   1   701.49   682.79    51.65 o
  -1  15  -1   714.28   732.63    75.37 o
 -11  15   1  8232.41  8314.89   193.84 o
  -4  15  -1  8275.80  8617.55   195.10 o
  -8  15   1   565.56   549.26    47.25 o
  -7  15  -1   563.73   628.73    48.18 o
  -5  15   1 12275.80 12634.80   247.79 o
 -10  15  -1 12347.00 11942.70   343.17 o
 -13  15  -1  3252.32  3342.56   174.33 o
 -16  16   1  2346.15  2272.65   142.53 o
 -13  16   1  5264.18  5522.53   160.90 o
  -3  16  -1  5255.67  5137.94   155.85 o
 -10  16   1  5565.97  5695.54   162.09 o
  -6  16  -1  5604.87  5613.99   161.19 o
  -7  16   1  6908.12  7282.91   184.84 o
  -9  16  -1  6930.99  7000.48   183.87 o
  -4  16   1  7724.56  7696.92   279.99 o
 -12  16  -1  7778.91  7832.72   280.18 o
 -15  17   1    72.15    14.22    12.00 <
  -2  17  -1    69.13    28.61    16.41 <
 -12  17   1  1016.36   996.14    67.27 o
  -5  17  -1   999.27   914.71    64.87 o
  -9  17   1  4469.96  4567.14   217.99 o
  -8  17  -1  4452.89  4504.88   148.15 o
  -6  17   1 11477.80 12292.00   263.90 o
 -11  17  -1 11556.00 12457.80   264.89 o
  -3  17   1  1733.92  1802.44   137.76 o
 -14  17  -1  1748.29  1596.97   127.96 o
 -17  18   1  1575.16  1617.86    89.64 o
 -14  18   1   652.83   668.38    59.37 o
  -4  18  -1   656.06   682.25    59.85 o
 -11  18   1  2239.96  2168.85   149.18 o
  -7  18  -1  2261.18  2160.18   106.58 o
  -8  18   1  2110.18  1990.78   145.99 o
 -10  18  -1  2092.47  1836.08    97.91 o
  -5  18   1   531.19   467.01    69.11 o
 -13  18  -1   526.30   417.43    71.16 o
 -19  19   1  1947.96  1901.24   147.32 o
 -16  19   1   535.65   531.43    75.93 o
  -3  19  -1   523.75   592.92    80.20 o
 -13  19   1  4236.10  3798.24   147.78 o
  -6  19  -1  4201.00  4154.50   151.88 o
 -10  19   1   978.08  1059.48    74.76 o
  -9  19  -1   968.70   764.72    68.01 o
  -7  19   1  2395.10  2376.39   163.62 o
 -12  19  -1  2389.96  2192.12   112.37 o
  -4  19   1  4585.62  4534.10   233.32 o
 -15  19  -1  4577.43  4583.81   234.80 o
 -15  20   1  5819.50  5265.89   263.71 o
  -5  20  -1  5821.02  6280.53   275.67 o
 -12  20   1   564.89   495.46    59.33 o
  -8  20  -1   549.87   664.97    61.57 o
  -9  20   1  1331.01  1433.66    89.04 o
 -11  20  -1  1351.70  1312.14    87.26 o
  -3   4   2  4673.42  4596.51    91.25 o
  -1   4  -2  4721.34  4708.32   114.69 o
  -2   5   2 12817.50 12527.20   192.35 o
  -4   6   2  9549.99 10115.90   142.49 o
  -2   6  -2  9512.70 10248.70   127.19 o
  -6   7   2  2222.58  2190.02    59.94 o
  -1   7  -2  2239.88  2148.50    49.68 o
  -8   8   2  2693.53  2872.87    77.17 o
  -5   8   2   878.65   750.65    35.18 o
  -3   8  -2   885.17   799.68    38.83 o
  -7   9   2 16351.20 17352.60   344.51 o
  -4   9   2  9750.54 10476.20   252.81 o
  -9  10   2   670.27   658.27    27.40 o
  -1  10  -2   664.87   621.03    27.10 o
  -6  10   2 16730.90 17600.30   344.40 o
  -4  10  -2 16760.30 16882.10   347.75 o
  -7  10  -2   579.94   606.81    57.96 o
 -11  11   2  1948.67  1840.60    73.49 o
   0  11  -2  1938.30  1903.13    72.30 o
  -8  11   2  9253.59  9642.55   141.78 o
  -5  11   2 13854.30 14402.40   334.22 o
 -10  12   2  3472.42  3422.48    70.71 o
  -2  12  -2  3429.09  3286.33    80.47 o
  -7  12   2  5077.95  5313.85   122.68 o
  -5  12  -2  5044.06  5391.87   193.41 o
  -4  12   2 10677.00 10652.90   291.73 o
  -8  12  -2 10676.70 10828.40   292.63 o
 -12  13   2  5550.37  5658.14   140.85 o
  -1  13  -2  5533.21  5259.79   137.94 o
  -9  13   2  6131.50  5992.44   216.37 o
  -4  13  -2  6095.05  6203.34   212.32 o
  -6  13   2   588.14   559.66    43.07 o
  -7  13  -2   587.58   543.06    42.54 o
 -10  13  -2  2857.82  2702.05   147.51 o
 -14  14   2  2650.06  2709.92   102.03 o
   0  14  -2  2652.34  3010.40   146.74 o
 -11  14   2  1820.59  1838.54    64.74 o
  -3  14  -2  1795.11  1886.27    83.09 o
  -8  14   2 10527.70 10573.90   212.39 o
  -9  14  -2  4830.92  4908.57   201.96 o
 -13  15   2  2492.04  2394.72   136.60 o
  -2  15  -2  2504.30  2425.57    98.58 o
 -10  15   2  4092.12  4232.83   131.60 o
  -5  15  -2  4087.74  4025.06   182.60 o
  -7  15   2  5234.43  5055.30   212.08 o
  -8  15  -2  5231.09  4960.66   208.62 o
  -4  15   2  4282.05  3801.03   187.84 o
 -11  15  -2  4290.57  4176.10   196.08 o
 -15  16   2  2798.44  2766.60    89.52 o
  -1  16  -2  2826.56  3057.07   160.80 o
 -12  16   2  6214.98  6361.31   135.07 o
  -4  16  -2  6226.42  6136.80   169.09 o
  -9  16   2  2826.66  2951.85   113.81 o
  -7  16  -2  2823.33  3003.67   161.67 o
  -6  16   2  4086.83  4386.23   207.65 o
 -17  17   2   218.15   278.23    47.15 o
   0  17  -2   223.44   296.89    51.94 o
 -14  17   2  2906.74  2886.38    91.95 o
  -3  17  -2  2927.91  2917.10   118.43 o
 -11  17   2   284.31   313.80    36.97 o
  -6  17  -2   288.39   205.70    32.38 o
  -8  17   2  3093.35  3408.36   185.51 o
  -9  17  -2  3077.90  3056.20   123.01 o
  -5  17   2   862.62   843.85    98.33 o
 -12  17  -2   847.75   642.94    87.21 o
 -16  18   2  4265.11  4236.05   119.35 o
  -2  18  -2  4285.97  4526.73   211.86 o
 -13  18   2  3637.81  3631.23   189.03 o
  -5  18  -2  3667.53  3916.47   199.71 o
 -10  18   2  1418.31  1368.28    82.57 o
  -8  18  -2  1406.75  1231.17    78.79 o
 -14  18  -2   379.38   337.32    64.90 o
 -18  19   2  1662.23  1617.28    92.08 o
  -1  19  -2  1641.89  1670.90   132.37 o
 -15  19   2   669.32   505.87    54.79 o
  -4  19  -2   658.53   521.15    53.20 o
 -12  19   2   760.72   764.19    63.66 o
  -7  19  -2   745.73   710.99    63.35 o
  -9  19   2   936.60   979.10    73.38 o
 -10  19  -2   949.59   952.86    71.59 o
  -6  19   2  5482.65  5815.10   270.17 o
 -13  19  -2  5452.86  5632.50   264.60 o
 -17  20   2   375.82   369.25    63.09 o
  -3  20  -2   374.38   367.54    66.25 o
 -14  20   2   901.72   888.72   100.62 o
  -6  20  -2   900.68   751.20    92.88 o
 -11  20   2  1055.10   818.62   101.91 o
  -9  20  -2  1062.96   993.90   105.43 o
  -4   5   3   102.43   117.24    16.33 o
  -1   5  -3    99.67   100.50     8.80 o
  -6   6   3 13490.90 13424.00   257.11 o
   0   6  -3 13492.70 13277.60   242.13 o
  -3   6   3 13581.00 13010.60   208.78 o
  -3   6  -3 13672.80 13820.40   200.68 o
  -5   7   3  1266.10  1186.15    38.02 o
  -2   7  -3  1272.50  1206.81    30.19 o
  -2   7   3   949.60   993.45    35.57 o
  -7   8   3  5520.22  5511.32    86.03 o
  -1   8  -3  5498.59  5465.48    88.53 o
  -9   9   3  5242.30  5174.46   163.45 o
   0   9  -3  5301.65  5033.54   110.62 o
  -6   9   3 15731.80 16342.20   218.51 o
  -3   9  -3 15745.70 16235.10   171.53 o
  -3   9   3  3998.71  3642.84    94.77 o
  -8  10   3  1488.89  1513.00    55.28 o
  -2  10  -3  1471.37  1469.57    48.10 o
  -5  10   3  9005.12  9230.47   152.99 o
  -5  10  -3  8993.77  9155.71   247.79 o
 -10  11   3 23127.70 21917.40   238.28 o
  -1  11  -3 23033.60 22227.00   291.93 o
  -7  11   3  2148.51  2094.18    73.64 o
  -4  11  -3  2126.02  2008.03   110.46 o
  -4  11   3  2439.24  2268.14    75.13 o
 -12  12   3  1780.38  1815.06   109.29 o
   0  12  -3  1805.95  1865.02   108.88 o
  -9  12   3  5692.49  5756.10   103.19 o
  -3  12  -3  5666.73  5954.93   165.25 o
  -6  12   3   864.54   798.02    43.52 o
  -6  12  -3   854.48   760.80    71.48 o
 -11  13   3  1948.74  1878.69    74.32 o
  -2  13  -3  1965.45  1956.31   116.53 o
  -8  13   3   474.83   424.98    24.58 o
  -5  13  -3   461.66   397.61    37.87 o
  -5  13   3  5891.55  5985.15   219.59 o
  -8  13  -3  5869.71  5959.37   221.17 o
 -13  14   3  1530.92  1581.89    59.01 o
  -1  14  -3  1522.88  1611.82    72.26 o
 -10  14   3    13.43     6.73     3.64 <
  -4  14  -3    15.03    18.75     6.97 <
  -7  14   3  8008.65  8269.44   169.89 o
 -15  15   3 12102.20 12319.70   240.87 o
   0  15  -3 12062.80 12335.40   238.42 o
 -12  15   3  3073.99  2998.95    73.54 o
  -3  15  -3  3073.95  3212.27   155.36 o
  -9  15   3  9152.29  9398.08   157.60 o
  -6  15  -3  9156.65  9331.72   210.57 o
  -6  15   3  7337.26  7015.38   261.47 o
  -9  15  -3  7303.39  7439.64   269.18 o
 -14  16   3  1534.86  1479.89    54.72 o
  -2  16  -3  1533.37  1457.55    79.40 o
 -11  16   3   113.27   106.91    15.88 o
  -5  16  -3   111.36    88.08    18.47 o
  -8  16   3  5976.72  6084.02   250.38 o
  -8  16  -3  6000.96  5522.81   241.37 o
 -11  16  -3 12507.40 12955.50   387.91 o
 -16  17   3  2328.78  2361.86    73.65 o
  -1  17  -3  2317.04  2273.96    82.47 o
 -13  17   3  4414.23  4417.51   113.05 o
  -4  17  -3  4443.57  4436.96   145.72 o
 -10  17   3  3695.67  3832.75   197.46 o
  -7  17  -3  3720.48  3777.25   137.31 o
  -7  17   3  4221.48  4401.36   219.16 o
 -10  17  -3  4243.53  4393.46   215.53 o
 -18  18   3  2477.61  2713.39   116.14 o
   0  18  -3  2480.06  2689.93   158.75 o
 -15  18   3   632.64   639.26    45.03 o
  -3  18  -3   640.67   644.07    56.13 o
 -12  18   3  6450.73  6549.42   143.06 o
  -6  18  -3  6425.15  6293.76   184.86 o
  -9  18   3  6645.03  6476.44   279.90 o
  -9  18  -3  6614.40  6189.38   273.15 o
 -12  18  -3   990.27   990.74   108.57 o
 -17  19   3  5812.70  5981.98   145.53 o
  -2  19  -3  5808.10  5745.71   180.54 o
 -14  19   3   440.45   467.23    37.19 o
  -5  19  -3   447.14   468.57    48.07 o
 -11  19   3  1803.60  1815.34   142.72 o
  -8  19  -3  1799.56  1701.34    97.82 o
  -8  19   3   411.33   337.20    69.75 o
 -11  19  -3   410.95   312.49    65.52 o
 -19  20   3  1048.52  1060.40    74.81 o
  -1  20  -3  1042.95  1089.19   108.53 o
 -16  20   3   473.06   576.33    50.74 o
  -4  20  -3   470.17   513.47    74.58 o
 -13  20   3   537.96   538.53    79.60 o
  -7  20  -3   528.25   603.86    82.95 o
 -18  21   3  1196.91  1168.34   106.84 o
  -2   5  -4  6653.22  6766.23   142.20 o
  -1   6  -4 58802.20 54139.90   747.77 o
  -4   6  -4  8748.55  8870.46   144.03 o
  -7   7   4  7222.91  6729.23   176.90 o
   0   7  -4  7216.14  7195.11   125.04 o
  -3   7  -4 39590.60 35190.70   494.92 o
  -6   8   4  7272.81  7263.59   173.37 o
  -2   8  -4  7288.36  6870.64   197.18 o
  -3   8   4 15565.00 15288.10   235.57 o
  -8   9   4  3461.77  3292.19   126.94 o
  -1   9  -4  3465.20  3645.13    75.32 o
  -4   9  -4 11184.20 11749.10   178.94 o
 -10  10   4 16158.60 16685.20   327.98 o
   0  10  -4 16089.70 16430.30   330.12 o
  -7  10   4  2461.46  2567.49    59.43 o
  -3  10  -4  2495.88  2388.49    64.50 o
  -4  10   4  1848.46  1821.14    41.84 o
  -9  11   4  1559.92  1609.86    51.24 o
  -2  11  -4  1572.58  1654.99    53.92 o
  -6  11   4  3353.79  3388.37    72.59 o
  -3  11   4  2867.93  2791.07    50.32 o
 -11  12   4  2752.38  2825.75    73.74 o
  -1  12  -4  2747.34  2729.42    71.12 o
  -8  12   4   957.34   941.54    51.33 o
  -4  12  -4   965.54   791.35    52.32 o
  -5  12   4  1710.40  1722.23    48.68 o
 -13  13   4    90.86   104.02    17.03 o
   0  13  -4    85.94    71.19    16.09 o
 -10  13   4   409.39   381.06    26.22 o
  -3  13  -4   404.62   338.44    26.70 o
  -7  13   4 11603.70 10810.10   221.11 o
  -6  13  -4 11632.40 12333.30   329.86 o
  -4  13   4 10025.70 10434.10   183.29 o
 -12  14   4  4614.14  4350.35   103.93 o
  -2  14  -4  4624.52  4476.91    89.04 o
  -9  14   4  1526.26  1457.16    52.13 o
  -5  14  -4  1529.97  1504.76    76.01 o
  -6  14   4  9770.85  9595.98   144.48 o
  -8  14  -4  9809.45  9916.46   308.47 o
 -14  15   4  2733.90  2780.38    71.96 o
  -1  15  -4  2743.72  2748.85    71.64 o
 -11  15   4  6531.03  6631.46   126.33 o
  -4  15  -4  6494.90  6673.50   170.24 o
  -8  15   4   481.45   478.04    30.79 o
  -7  15  -4   474.06   329.00    59.88 o
 -16  16   4 14939.30 14770.40   272.53 o
   0  16  -4 14897.00 14535.50   272.56 o
 -13  16   4  1129.17  1157.09    45.58 o
  -3  16  -4  1126.20  1131.93    69.27 o
 -10  16   4 14273.30 14782.30   202.83 o
  -6  16  -4 14207.00 14773.90   387.69 o
  -7  16   4  4516.88  4465.09   132.82 o
  -9  16  -4  4532.58  4487.57   215.24 o
 -15  17   4  2040.55  2179.12    67.70 o
  -2  17  -4  2052.69  2100.77    76.68 o
 -12  17   4  3071.51  3312.39   114.43 o
  -5  17  -4  3052.78  3288.02   125.76 o
  -9  17   4  1172.13  1220.25    67.43 o
  -8  17  -4  1180.48  1292.74   112.59 o
 -17  18   4  1957.33  2025.73    98.38 o
  -1  18  -4  1960.50  2026.21    78.83 o
 -14  18   4  4123.76  4078.55    95.19 o
  -4  18  -4  4157.04  4041.87   142.93 o
 -11  18   4   316.36   309.85    36.39 o
  -7  18  -4   319.46   264.82    37.90 o
 -10  18  -4   766.03   688.62    95.63 o
 -19  19   4  3843.11  3621.40   187.10 o
   0  19  -4  3835.98  4046.84   200.20 o
 -16  19   4    44.36    21.92     9.50 <
  -3  19  -4    46.34    16.54    10.18 <
 -13  19   4    46.00    31.76    11.48 <
  -6  19  -4    48.28    25.50    12.09 <
  -9  19  -4   860.34   688.23    96.30 o
 -18  20   4   567.20   515.76    49.16 o
  -2  20  -4   571.81   561.48    83.08 o
 -15  20   4  4208.06  4222.73   138.01 o
  -5  20  -4  4212.23  4124.28   213.89 o
 -20  21   4  3297.46  3263.86   183.71 o
 -17  21   4   726.84   742.24    74.65 o
 -19  22   4   873.02   801.60    89.90 o
  -2   6  -5   105.00    51.65    12.14 o
  -1   7  -5  5599.07  5431.34    87.35 o
  -4   7  -5  5134.32  4970.16   109.75 o
   0   8  -5  3991.28  4036.84    96.37 o
  -3   8  -5   288.39   272.22    17.66 o
  -2   9  -5  1940.16  2009.49    58.45 o
  -5   9  -5  2071.84  2175.80    69.35 o
  -9  10   5   909.94   934.72    48.64 o
  -1  10  -5   914.58   944.77    33.71 o
  -6  10   5  4730.72  5152.71   138.50 o
 -11  11   5  4321.50  4424.42   166.56 o
   0  11  -5  4282.27  4392.99   111.61 o
  -3  11  -5   577.30   537.52    28.45 o
 -10  12   5   919.23   864.50    75.41 o
  -2  12  -5   912.32   857.74    38.93 o
  -7  12   5  5923.66  5959.37   161.13 o
  -4  12   5  2319.92  2344.73    72.10 o
 -12  13   5  4290.28  4218.84   126.99 o
  -1  13  -5  4300.04  4288.00   115.28 o
  -9  13   5  3051.93  2900.14   121.37 o
  -4  13  -5  3053.29  2825.65   101.01 o
  -3  13   5  5969.61  5961.21   117.68 o
 -14  14   5  2403.95  2399.21   137.57 o
   0  14  -5  2385.50  2280.17    88.62 o
 -11  14   5  2344.13  2340.32    69.35 o
  -3  14  -5  2336.30  2268.23    60.61 o
  -8  14   5  1377.01  1414.01    50.73 o
  -6  14  -5  1367.29  1346.79   106.55 o
  -5  14   5  4545.75  4451.39   118.36 o
  -2  14   5  1200.72  1218.26    42.47 o
 -13  15   5   260.64   280.89    25.66 o
  -2  15  -5   258.21   280.92    21.67 o
 -10  15   5 16019.20 16351.20   208.68 o
  -5  15  -5 16107.30 15888.30   421.91 o
  -7  15   5  2809.78  2760.24   104.37 o
  -4  15   5   894.52   780.89    27.14 o
 -15  16   5  8712.81  9082.53   165.50 o
  -1  16  -5  8714.46  9021.12   139.80 o
 -12  16   5  5197.68  5595.72   117.46 o
  -4  16  -5  5206.92  5241.72   154.21 o
  -9  16   5  1972.09  2073.60    65.51 o
  -7  16  -5  1989.89  1746.37   134.71 o
  -6  16   5  6652.91  6360.04   131.84 o
 -17  17   5  2554.90  2579.20   105.97 o
   0  17  -5  2539.26  2581.32   106.25 o
 -14  17   5  3191.39  3530.31   118.50 o
  -3  17  -5  3190.36  3256.40   121.71 o
 -11  17   5  4581.38  4692.44   107.85 o
  -6  17  -5  4618.25  4875.87   231.89 o
  -8  17   5   138.65   130.94    15.79 o
  -5  17   5  2217.39  2113.16    66.80 o
 -16  18   5   285.23   289.22    30.02 o
  -2  18  -5   284.32   295.57    27.87 o
 -13  18   5   857.02   949.93    49.58 o
  -5  18  -5   874.09   993.15    70.52 o
 -10  18   5   183.98   149.19    19.07 o
  -8  18  -5   182.69    77.42    36.19 <
  -7  18   5  2120.10  1984.65    76.68 o
 -18  19   5   361.39   389.48    33.47 o
  -1  19  -5   363.61   358.72    39.07 o
 -15  19   5   839.46   899.47    56.07 o
  -4  19  -5   834.47   793.72    90.29 o
 -12  19   5   326.14   316.02    38.34 o
  -9  19   5   619.00   555.63    45.89 o
 -20  20   5  2367.98  2112.71   142.42 o
   0  20  -5  2383.88  2478.04   151.62 o
 -17  20   5   301.43   321.51    36.42 o
  -3  20  -5   302.02   252.30    48.71 o
 -14  20   5   927.23  1083.76    76.92 o
  -6  20  -5   935.38   847.94    93.71 o
 -19  21   5   567.64   695.31    76.75 o
 -16  21   5  6710.43  6915.98   227.22 o
 -18  22   5   826.78   859.56    80.18 o
  -3   6  -6  2824.07  2880.38    91.63 o
  -5   7  -6   771.66   780.77    35.25 o
  -1   8  -6   383.05   407.08    29.74 o
  -4   8  -6  3835.88  4052.73    69.17 o
   0   9  -6 12433.20 13201.80   298.49 o
  -3   9  -6   526.74   471.29    39.52 o
  -2  10  -6   539.48   560.85    28.49 o
  -5  10  -6 12962.20 12582.60   227.56 o
  -1  11  -6  3330.29  3329.89    68.39 o
  -4  11  -6  2094.90  2112.10    57.06 o
   0  12  -6  6160.05  6362.09   142.85 o
  -3  12  -6  6410.41  6562.48   112.29 o
 -11  13   6    57.62    44.87    18.09 <
  -2  13  -6    58.70    69.29    10.09 o
  -8  13   6   385.95   340.89    39.60 o
 -13  14   6   759.81   779.24    51.57 o
  -1  14  -6   753.84   724.57    33.58 o
 -10  14   6  1398.60  1422.94    85.02 o
  -4  14  -6  1390.77  1383.92    64.37 o
  -7  14   6  2452.06  2072.36    92.68 o
 -15  15   6  4695.78  4791.34   202.79 o
   0  15  -6  4722.72  4608.93   131.23 o
 -12  15   6    86.54    76.94    23.02 o
  -3  15  -6    86.28    78.32    13.19 o
  -9  15   6   135.58   135.55    25.09 o
  -6  15  -6   137.56   158.98    38.86 o
 -14  16   6   366.19   314.73    35.40 o
  -2  16  -6   359.40   350.09    25.50 o
 -11  16   6  3465.63  3474.72   146.97 o
  -5  16  -6  3473.90  3521.28   190.34 o
  -8  16   6   594.07   483.45    44.36 o
 -16  17   6   289.68   337.92    38.25 o
  -1  17  -6   295.91   337.36    25.99 o
 -13  17   6  2257.21  2314.00   125.01 o
  -4  17  -6  2245.66  2278.45   153.88 o
 -10  17   6  1202.50  1165.84    78.76 o
  -7  17  -6  1185.20  1207.74   116.63 o
 -18  18   6  1561.76  1427.85   118.49 o
   0  18  -6  1577.79  1617.57    86.48 o
 -15  18   6   250.23   258.93    33.96 o
  -3  18  -6   251.08   258.39    36.52 o
 -12  18   6   663.77   610.75    58.83 o
  -6  18  -6   662.72   739.44    89.55 o
  -9  18   6  4724.36  4373.85   145.92 o
 -17  19   6   463.70   416.80    62.23 o
  -2  19  -6   451.45   425.84    40.75 o
 -14  19   6    33.29     9.05    10.41 <
 -11  19   6   504.63   497.63    51.70 o
  -1  20  -6   570.34   540.40    49.74 o
 -16  20   6   687.31   624.19    73.14 o
  -4  20  -6   698.55   740.38    83.82 o
 -18  21   6   436.49   330.12    56.71 o
  -3   7  -7  3851.70  4067.44   119.74 o
  -6   7  -7   356.97   386.82    19.68 o
  -2   8  -7   330.06   333.23    36.81 o
  -5   8  -7  2706.28  2715.34    77.39 o
  -1   9  -7   622.13   635.46    54.37 o
  -4   9  -7   483.16   474.20    23.75 o
   0  10  -7  1600.47  1648.71    96.73 o
  -3  10  -7  4298.57  4180.18    88.94 o
  -2  11  -7   594.05   569.88    30.63 o
  -5  11  -7  9520.38 10210.60   203.33 o
  -1  12  -7   389.77   405.93    27.42 o
  -4  12  -7  1253.57  1191.63    43.91 o
   0  13  -7  3570.64  3583.06   107.57 o
  -3  13  -7  1256.81  1286.88    48.18 o
  -2  14  -7  1210.63  1181.84    49.06 o
  -1  15  -7   698.91   631.67    38.15 o
  -4  15  -7   429.66   466.95    41.20 o
   0  16  -7  3415.46  3598.33   118.19 o
  -3  16  -7    12.48    10.84     9.70 <
 -15  17   7   876.38   879.41    83.76 o
  -2  17  -7   865.23   805.86    59.41 o
  -5  17  -7   894.14   932.86    97.21 o
 -17  18   7  1593.59  1330.53    78.96 o
  -1  18  -7  1602.45  1699.45    87.12 o
 -14  18   7  3977.01  3444.38   157.47 o
 -16  19   7   396.01   243.86    45.41 o
 -18  20   7   462.48   296.39    57.78 o
  -6   8  -8  3646.49  3918.80    85.10 o
  -2   9  -8   445.13   422.89    44.42 o
  -5   9  -8  7059.63  6820.54   154.17 o
  -1  10  -8   242.47   286.91    40.08 o
  -4  10  -8  1622.06  1553.14    46.25 o
   0  11  -8  2711.35  2597.87   131.30 o
  -3  11  -8   474.19   492.19    45.49 o
  -2  12  -8   517.22   492.43    52.42 o
  -1  13  -8  1090.94  1172.98    62.82 o
   0  14  -8   181.88   141.06    31.72 o
  -3  14  -8   945.51  1020.97    72.33 o
  -2  15  -8  2195.17  2407.23    95.23 o
  -1  16  -8  1901.20  2043.48   132.57 o
   0  17  -8   333.09   340.64    54.00 o
  -3  17  -8   840.47   744.95    83.76 o
