data_I
loop_
 _publ_author_name
 _publ_author_address
 'Likhacheva, A.Yu.'
; Sobolev Institute of Geology and Mineralogy SB RAS
3 Koptyuga Avenue
630090 Novosibirsk
RUSSIA
;
 'Rashchenko, S.V.'
; Sobolev Institute of Geology and Mineralogy SB RAS
3 Koptyuga Avenue
630090 Novosibirsk
RUSSIA
Novosibirsk State University
1 Pirogova Street
630090 Novosibirsk
RUSSIA
;
 'Musiyachenko, K.A.'
; Sobolev Institute of Geology and Mineralogy SB RAS
3 Koptyuga Avenue
630090 Novosibirsk
RUSSIA
;
 'Korsakov, A.V.'
; Sobolev Institute of Geology and Mineralogy SB RAS
3 Koptyuga Avenue
630090 Novosibirsk
RUSSIA
;
 'Collings, I.E.'
; European Synchrotron Radiation Facility
71 Avenue des Martyrs
38000 Grenoble
FRANCE
;
 'Hanfland, M'
; European Synchrotron Radiation Facility
71 Avenue des Martyrs
38000 Grenoble
FRANCE
;
_publ_section_title
; Compressibility and structure behaviour of maruyamaite (K-tourmaline)
from the Kokchetav massif at high pressure up to 20 GPa
;
_publ_section_abstract
;
The structural behaviour of maruyamaite (K-dominant tourmaline)
X(K0.54Na0.28Ca0.19)Y(Mg1.3Al1.17Fe0.39Ti0.14)Z(Al5Mg)
[Si5.95Al0.05O18](BO3)3(O0.23(OH)0.77)3O
from the ultrahigh-pressure metamorphic rocks of Kokchetav massif
was studied using synchrotron based single-crystal diffraction up to 20 GPa.
Within the whole pressure range the compression is regular and anisotropic,
with the c direction being more compressible than the a direction.
Fitting the V/P data with the 2nd and 3rd order
Birch-Murnaghan equations of state gives: V0 =1587.2(7) A3, K0 = 115.6(9) GPa
at fixed K'= 4, and V0 =1588(1) A3, K0 = 112(3) GPa, K' = 4.5(4).
The bulk modulus values are slightly higher as compared to those
found for dravite and cation-deficient synthetic K-dravite.
The pressure evolution of the main structural parameters of K-tourmaline
is similar to those of dravite. However, a minor change in the rigidity
of local contacts of the X site with 6-membered ring, due to the presence of K,
is apparently critical for stabilization of tourmaline structure
within 15-20 GPa, which is evinced by the absence of the phase transition
observed in dravite near 15.4 GPa. The stabilizing function of K
becomes apparent at P > 15 GPa. The comparison of the HP structural behaviour
of maruyamaite and dravite supports the recent suggestion that the large X site
plays a secondary role in the elastic behaviour of tourmaline,
compared to the octahedral framework. In addition, the present study reveals
several new features of polyhedra distortions, which demonstrate
their complex interaction on compression.
;
_publ_requested_journal                  'Mineralogy and Petrology'
_publ_contact_author_name                'Likhacheva, A.Yu'
_publ_contact_author_email               alih@igm.nsc.ru
_publ_contact_author_address
; Sobolev Institute of Geology and Mineralogy SB RAS
3 Koptyuga Avenue
630090 Novosibirsk
RUSSIA
;
_chemical_name_mineral                   maruyamaite
_chemical_formula_sum
'Al6.22 B3 Ca0.19 Fe0.39 H2.31 K0.54 Mg2.3 Na0.28 O31 Si5.95 Ti0.14'
_chemical_formula_weight                 985.2
_chemical_compound_source                'Kokchetav Massif (Kumdy-Kol area, northern Kazakhstan)'
_chemical_absolute_configuration         unk
_symmetry_cell_setting                   trigonal
_symmetry_space_group_name_H-M           'R 3 m'
_symmetry_space_group_name_Hall          'R 3;-2"'
_symmetry_Int_Tables_number              160
loop_
 _space_group_symop_id
 _space_group_symop_operation_xyz
 1   x,y,z
 2   -y,x-y,z
 3   -x+y,-x,z
 4   -y,-x,z
 5   -x+y,y,z
 6   x,x-y,z
 7   x+2/3,y+1/3,z+1/3
 8   -y+2/3,x-y+1/3,z+1/3
 9   -x+y+2/3,-x+1/3,z+1/3
 10  -y+2/3,-x+1/3,z+1/3
 11  -x+y+2/3,y+1/3,z+1/3
 12  x+2/3,x-y+1/3,z+1/3
 13  x+1/3,y+2/3,z+2/3
 14  -y+1/3,x-y+2/3,z+2/3
 15  -x+y+1/3,-x+2/3,z+2/3
 16  -y+1/3,-x+2/3,z+2/3
 17  -x+y+1/3,y+2/3,z+2/3
 18  x+1/3,x-y+2/3,z+2/3
_cell_length_a                           15.636(3)
_cell_length_b                           15.636(3)
_cell_length_c                           6.8962(14)
_cell_angle_alpha                        90
_cell_angle_beta                         90
_cell_angle_gamma                        120
_cell_volume                             1460.2(5)
_cell_formula_units_Z                    3
_cell_measurement_reflns_used            427
_cell_measurement_theta_min              2.61
_cell_measurement_theta_max              19.77
_cell_measurement_temperature            293
_exptl_crystal_density_diffrn            3.3612
_exptl_crystal_F_000                     1428
_exptl_absorpt_coefficient_mu            0.324
_exptl_crystal_description               platelet
_exptl_crystal_size_max                  0.040
_exptl_crystal_size_mid                  0.035
_exptl_crystal_size_min                  0.020
_exptl_crystal_colour                    brownish
_exptl_absorpt_correction_type           'multi-scan'
_exptl_absorpt_process_details
;
CrysAlisPro 1.171.39.46 (Rigaku Oxford Diffraction, 2018)
Empirical absorption correction using spherical harmonics,
 implemented in SCALE3 ABSPACK scaling algorithm.
;
_exptl_absorpt_correction_T_min          0.987
_exptl_absorpt_correction_T_max          1
_diffrn_ambient_temperature              293
_diffrn_ambient_pressure                 11130000
_diffrn_source                           'ESRF ID15B'
_diffrn_radiation_type                   'synchrotron'
_diffrn_radiation_wavelength             0.41122
_diffrn_radiation_monochromator          'Si(111) Bragg'
_diffrn_detector                         'MAR555 flat panel'
_diffrn_detector_area_resol_mean         7.2
_diffrn_measurement_device               'one-axis goniometer'
_diffrn_measurement_method               '\f scans'
_diffrn_reflns_number                    1017
_diffrn_reflns_theta_min                 1.51
_diffrn_reflns_theta_max                 21.64
_diffrn_reflns_theta_full                14.82
_diffrn_measured_fraction_theta_max      0.35
_diffrn_measured_fraction_theta_full     0.65
_diffrn_reflns_av_R_equivalents          0.0263
_diffrn_reflns_av_unetI/netI             0.0335
_diffrn_reflns_limit_h_min               -20
_diffrn_reflns_limit_h_max               20
_diffrn_reflns_limit_k_min               -19
_diffrn_reflns_limit_k_max               21
_diffrn_reflns_limit_l_min               -8
_diffrn_reflns_limit_l_max               7
_diffrn_radiation_probe                  X-ray
_refine_special_details
; Electron density of each mixed site was approximated by
corresponding occupancy of its major constituent
(0.79K for X, 0.95Si for T, 0.96Al for Z, 1.20Mg for Y).
;
_reflns_special_details
; Reflections outside DAC opening angle were omitted
during integration in CrysAlisPro software.
;
_reflns_number_total                     603
_reflns_number_gt                        589
_reflns_threshold_expression             'I>3\s(I)'
_refine_ls_structure_factor_coef         F
_refine_ls_R_factor_gt                   0.0218
_refine_ls_wR_factor_gt                  0.0291
_refine_ls_R_factor_all                  0.0227
_refine_ls_wR_factor_ref                 0.0300
_refine_ls_goodness_of_fit_ref           1.43
_refine_ls_goodness_of_fit_gt            1.41
_refine_ls_number_reflns                 603
_refine_ls_number_parameters             87
_refine_ls_number_restraints             0
_refine_ls_number_constraints            1
_refine_ls_weighting_scheme              sigma
_refine_ls_weighting_details             'w=1/(\s^2^(F)+0.0001F^2^)'
_refine_ls_hydrogen_treatment            'constr'
_refine_ls_shift/su_max                  0.0489
_refine_ls_shift/su_mean                 0.0031
_refine_diff_density_max                 0.30
_refine_diff_density_min                 -0.32
_refine_ls_extinction_method             'none'
loop_
 _atom_type_symbol
 _atom_type_scat_dispersion_real
 _atom_type_scat_dispersion_imag
 _atom_type_scat_source
 Al   0.0199  0.0165
 'International Tables Vol C tables 4.2.6.8 and 6.1.1.1'
 B   -0.0004  0.0002
 'International Tables Vol C tables 4.2.6.8 and 6.1.1.1'
 Ca   0.0951  0.1050
 'International Tables Vol C tables 4.2.6.8 and 6.1.1.1'
 Fe   0.1968  0.3058
 'International Tables Vol C tables 4.2.6.8 and 6.1.1.1'
 H    0.0000  0.0000
 'International Tables Vol C tables 4.2.6.8 and 6.1.1.1'
 K    0.0805  0.0845
 'International Tables Vol C tables 4.2.6.8 and 6.1.1.1'
 Mg   0.0142  0.0116
 'International Tables Vol C tables 4.2.6.8 and 6.1.1.1'
 Na   0.0096  0.0078
 'International Tables Vol C tables 4.2.6.8 and 6.1.1.1'
 O    0.0018  0.0018
 'International Tables Vol C tables 4.2.6.8 and 6.1.1.1'
 Si   0.0267  0.0229
 'International Tables Vol C tables 4.2.6.8 and 6.1.1.1'
 Ti   0.1267  0.1560
 'International Tables Vol C tables 4.2.6.8 and 6.1.1.1'
_computing_data_collection
 'CrysAlisPro 1.171.39.46 (Rigaku OD, 2018)'
_computing_cell_refinement
 'CrysAlisPro 1.171.39.46 (Rigaku OD, 2018)'
_computing_data_reduction
 'CrysAlisPro 1.171.39.46 (Rigaku OD, 2018)'
_computing_structure_solution            'SUPERFLIP (Palatinus & Chapuis, 2007)'
_computing_structure_refinement          'JANA2006 (Petricek et al., 2014)'
loop_
 _atom_site_label
 _atom_site_type_symbol
 _atom_site_fract_x
 _atom_site_fract_y
 _atom_site_fract_z
 _atom_site_adp_type
 _atom_site_U_iso_or_equiv
 _atom_site_site_symmetry_multiplicity
 _atom_site_occupancy
 _atom_site_calc_flag
 _atom_site_refinement_flags
 _atom_site_disorder_assembly
 _atom_site_disorder_group
  X K 0 0 0.2112(4) Uani 0.0163(6) 3 0.79 d . . .
  T Si 0.19209(5) 0.18997(5) 0.010283 Uani 0.0035(3) 18 0.949 d . . .
  Z Al 0.29578(6) 0.25975(6) 0.6117(2) Uani 0.0047(3) 18 0.961 d . . .
  B B 0.10958(14) 0.2192(3) 0.4498(7) Uani 0.0065(14) 9 1 d . . .
  Y Mg 0.12252(8) 0.06126(4) 0.6345(3) Uani 0.0075(4) 9 1.2 d . . .
  O1 O -0.00904(15) 0.18274(13) -0.2196(4) Uani 0.0081(8) 18 1 d . . .
  O2 O -0.00734(14) 0.28247(13) 0.0871(4) Uani 0.0092(8) 18 1 d . . .
  O3 O 0.06068(15) 0.26994(14) 0.4391(4) Uani 0.0098(8) 18 1 d . . .
  O4 O 0.05962(10) -0.05962(10) 0.4809(6) Uani 0.0116(11) 9 1 d . . .
  O5 O 0 0 0.7868(9) Uani 0.0124(16) 3 1 d . . .
  O6 O -0.1930(2) -0.09648(11) 0.0886(5) Uani 0.0096(10) 9 1 d . . .
  O7 O 0.24311(11) 0.4862(2) -0.2228(5) Uani 0.0104(10) 9 1 d . . .
  O8 O 0.20190(13) 0.4038(3) 0.1692(5) Uani 0.0144(12) 9 1 d . . .
loop_
 _atom_site_aniso_label
 _atom_site_aniso_type_symbol
 _atom_site_aniso_U_11
 _atom_site_aniso_U_22
 _atom_site_aniso_U_33
 _atom_site_aniso_U_12
 _atom_site_aniso_U_13
 _atom_site_aniso_U_23
 X K 0.0129(6) 0.0129(6) 0.0231(15) 0.0065(3) 0 0
 T Si 0.0028(4) 0.0020(3) 0.0052(4) 0.0009(3) -0.0005(3) -0.0008(3)
 Z Al 0.0035(4) 0.0045(4) 0.0061(5) 0.0020(3) -0.0003(3) 0.0005(3)
 B B 0.0061(13) 0.0066(17) 0.007(3) 0.0033(9) 0.0001(6) 0.0003(12)
 Y Mg 0.0067(5) 0.0040(4) 0.0129(8) 0.0033(3) -0.0043(4) -0.0021(2)
 O1 O 0.0106(9) 0.0089(9) 0.0055(14) 0.0054(7) -0.0016(7) -0.0019(7)
 O2 O 0.0115(9) 0.0076(9) 0.0097(13) 0.0058(7) 0.0008(8) -0.0006(7)
 O3 O 0.0098(9) 0.0095(10) 0.0146(13) 0.0083(8) 0.0018(7) 0.0031(7)
 O4 O 0.0113(11) 0.0113(11) 0.016(2) 0.0084(12) 0.0002(5) -0.0002(5)
 O5 O 0.0115(15) 0.0115(15) 0.014(4) 0.0058(8) 0 0
 O6 O 0.0165(14) 0.0088(10) 0.0060(17) 0.0082(7) -0.0012(10) -0.0006(5)
 O7 O 0.0078(9) 0.0170(15) 0.0095(18) 0.0085(7) -0.0011(6) -0.0022(11)
 O8 O 0.0129(11) 0.0269(17) 0.008(2) 0.0135(8) 0.0009(6) 0.0018(13)
loop_
 _geom_bond_atom_site_label_1
 _geom_bond_atom_site_label_2
 _geom_bond_site_symmetry_1
 _geom_bond_site_symmetry_2
 _geom_bond_distance
 _geom_bond_publ_flag
  X T . . 3.293(2) ?
  X T . 2_555 3.2927(17) ?
  X T . 3_555 3.2927(17) ?
  X T . 4_555 3.293(2) ?
  X T . 5_555 3.2927(17) ?
  X T . 6_555 3.2927(17) ?
  X Y . . 3.358(3) ?
  X Y . 2_555 3.358(3) ?
  X Y . 3_555 3.358(3) ?
  X O4 . . 2.463(4) ?
  X O4 . 2_555 2.463(4) ?
  X O4 . 3_555 2.463(4) ?
  X O6 . . 2.746(3) ?
  X O6 . 2_555 2.746(4) ?
  X O6 . 3_555 2.746(3) ?
  X O7 . 7_445 2.540(3) ?
  X O7 . 8_555 2.540(3) ?
  X O7 . 9_455 2.540(4) ?
  T O1 . 5_555 1.589(3) ?
  T O2 . 5_555 1.580(2) ?
  T O6 . 3_555 1.612(4) ?
  T O7 . 8_555 1.631(4) ?
  Z Z . 8_555 2.8746(19) ?
  Z Z . 15_554 2.875(2) ?
  Z Y . . 2.9306(19) ?
  B O3 . . 1.352(5) ?
  B O3 . 5_555 1.352(3) ?
  B O4 . 2_555 1.370(4) ?
  Y Y . 2_555 2.874(2) ?
  Y Y . 3_555 2.874(2) ?
  Y O1 . 3_556 1.933(3) ?
  Y O1 . 5_556 1.933(2) ?
  Y O4 . . 1.950(3) ?
  Y O4 . 2_555 1.950(3) ?
  Y O5 . . 1.963(4) ?
  Y O8 . 8_555 2.107(4) ?
loop_
 _geom_angle_atom_site_label_1
 _geom_angle_atom_site_label_2
 _geom_angle_atom_site_label_3
 _geom_angle_site_symmetry_1
 _geom_angle_site_symmetry_2
 _geom_angle_site_symmetry_3
 _geom_angle
 _geom_angle_publ_flag
  T X T . . 2_555 103.56(5) ?
  T X T . . 3_555 103.56(5) ?
  T X T . . 4_555 130.23(8) ?
  T X T . . 5_555 54.92(3) ?
  T X T . . 6_555 52.98(3) ?
  T X Y . . . 88.60(3) ?
  T X Y . . 2_555 111.72(4) ?
  T X Y . . 3_555 138.75(6) ?
  T X O4 . . . 108.18(4) ?
  T X O4 . . 2_555 78.79(6) ?
  T X O4 . . 3_555 146.67(7) ?
  T X O6 . . . 128.47(10) ?
  T X O6 . . 2_555 82.08(7) ?
  T X O6 . . 3_555 29.21(9) ?
  T X O7 . . 7_445 129.53(10) ?
  T X O7 . . 8_555 28.97(10) ?
  T X O7 . . 9_455 83.88(7) ?
  T X T 2_555 . 3_555 103.56(5) ?
  T X T 2_555 . 4_555 54.92(3) ?
  T X T 2_555 . 5_555 52.98(3) ?
  T X T 2_555 . 6_555 130.23(8) ?
  T X Y 2_555 . . 138.75(6) ?
  T X Y 2_555 . 2_555 88.60(3) ?
  T X Y 2_555 . 3_555 111.72(4) ?
  T X O4 2_555 . . 146.67(7) ?
  T X O4 2_555 . 2_555 108.18(6) ?
  T X O4 2_555 . 3_555 78.79(7) ?
  T X O6 2_555 . . 29.21(5) ?
  T X O6 2_555 . 2_555 128.47(10) ?
  T X O6 2_555 . 3_555 82.08(9) ?
  T X O7 2_555 . 7_445 83.88(7) ?
  T X O7 2_555 . 8_555 129.53(12) ?
  T X O7 2_555 . 9_455 28.97(5) ?
  T X T 3_555 . 4_555 52.98(3) ?
  T X T 3_555 . 5_555 130.23(8) ?
  T X T 3_555 . 6_555 54.92(3) ?
  T X Y 3_555 . . 111.72(4) ?
  T X Y 3_555 . 2_555 138.75(6) ?
  T X Y 3_555 . 3_555 88.60(4) ?
  T X O4 3_555 . . 78.79(6) ?
  T X O4 3_555 . 2_555 146.67(8) ?
  T X O4 3_555 . 3_555 108.18(5) ?
  T X O6 3_555 . . 82.08(7) ?
  T X O6 3_555 . 2_555 29.21(5) ?
  T X O6 3_555 . 3_555 128.47(11) ?
  T X O7 3_555 . 7_445 28.97(6) ?
  T X O7 3_555 . 8_555 83.88(10) ?
  T X O7 3_555 . 9_455 129.53(10) ?
  T X T 4_555 . 5_555 103.56(5) ?
  T X T 4_555 . 6_555 103.56(5) ?
  T X Y 4_555 . . 138.75(5) ?
  T X Y 4_555 . 2_555 111.72(3) ?
  T X Y 4_555 . 3_555 88.60(3) ?
  T X O4 4_555 . . 108.18(4) ?
  T X O4 4_555 . 2_555 146.67(7) ?
  T X O4 4_555 . 3_555 78.79(6) ?
  T X O6 4_555 . . 29.21(6) ?
  T X O6 4_555 . 2_555 82.08(6) ?
  T X O6 4_555 . 3_555 128.47(10) ?
  T X O7 4_555 . 7_445 28.97(7) ?
  T X O7 4_555 . 8_555 129.53(11) ?
  T X O7 4_555 . 9_455 83.88(6) ?
  T X T 5_555 . 6_555 103.56(5) ?
  T X Y 5_555 . . 111.72(4) ?
  T X Y 5_555 . 2_555 88.60(4) ?
  T X Y 5_555 . 3_555 138.75(6) ?
  T X O4 5_555 . . 146.67(7) ?
  T X O4 5_555 . 2_555 78.79(7) ?
  T X O4 5_555 . 3_555 108.18(6) ?
  T X O6 5_555 . . 82.08(6) ?
  T X O6 5_555 . 2_555 128.47(10) ?
  T X O6 5_555 . 3_555 29.21(9) ?
  T X O7 5_555 . 7_445 129.53(11) ?
  T X O7 5_555 . 8_555 83.88(10) ?
  T X O7 5_555 . 9_455 28.97(6) ?
  T X Y 6_555 . . 88.60(3) ?
  T X Y 6_555 . 2_555 138.75(5) ?
  T X Y 6_555 . 3_555 111.72(4) ?
  T X O4 6_555 . . 78.79(6) ?
  T X O4 6_555 . 2_555 108.18(5) ?
  T X O4 6_555 . 3_555 146.67(8) ?
  T X O6 6_555 . . 128.47(10) ?
  T X O6 6_555 . 2_555 29.21(6) ?
  T X O6 6_555 . 3_555 82.08(10) ?
  T X O7 6_555 . 7_445 83.88(7) ?
  T X O7 6_555 . 8_555 28.97(9) ?
  T X O7 6_555 . 9_455 129.53(11) ?
  Y X Y . . 2_555 50.66(5) ?
  Y X Y . . 3_555 50.66(5) ?
  Y X O4 . . . 35.06(6) ?
  Y X O4 . . 2_555 35.06(7) ?
  Y X O4 . . 3_555 70.57(10) ?
  Y X O6 . . . 137.54(10) ?
  Y X O6 . . 2_555 91.87(8) ?
  Y X O6 . . 3_555 91.87(8) ?
  Y X O7 . . 7_445 118.38(9) ?
  Y X O7 . . 8_555 76.25(9) ?
  Y X O7 . . 9_455 118.38(9) ?
  Y X Y 2_555 . 3_555 50.66(5) ?
  Y X O4 2_555 . . 70.57(9) ?
  Y X O4 2_555 . 2_555 35.06(6) ?
  Y X O4 2_555 . 3_555 35.06(6) ?
  Y X O6 2_555 . . 91.87(8) ?
  Y X O6 2_555 . 2_555 137.54(10) ?
  Y X O6 2_555 . 3_555 91.87(9) ?
  Y X O7 2_555 . 7_445 118.38(9) ?
  Y X O7 2_555 . 8_555 118.38(10) ?
  Y X O7 2_555 . 9_455 76.25(9) ?
  Y X O4 3_555 . . 35.06(6) ?
  Y X O4 3_555 . 2_555 70.57(10) ?
  Y X O4 3_555 . 3_555 35.06(7) ?
  Y X O6 3_555 . . 91.87(8) ?
  Y X O6 3_555 . 2_555 91.87(8) ?
  Y X O6 3_555 . 3_555 137.54(10) ?
  Y X O7 3_555 . 7_445 76.25(9) ?
  Y X O7 3_555 . 8_555 118.38(10) ?
  Y X O7 3_555 . 9_455 118.38(10) ?
  O4 X O4 . . 2_555 69.18(11) ?
  O4 X O4 . . 3_555 69.18(11) ?
  O4 X O6 . . . 122.98(8) ?
  O4 X O6 . . 2_555 66.97(10) ?
  O4 X O6 . . 3_555 122.98(9) ?
  O4 X O7 . . 7_445 83.75(9) ?
  O4 X O7 . . 8_555 83.75(10) ?
  O4 X O7 . . 9_455 146.82(14) ?
  O4 X O4 2_555 . 3_555 69.18(10) ?
  O4 X O6 2_555 . . 122.98(9) ?
  O4 X O6 2_555 . 2_555 122.98(9) ?
  O4 X O6 2_555 . 3_555 66.97(10) ?
  O4 X O7 2_555 . 7_445 146.82(14) ?
  O4 X O7 2_555 . 8_555 83.75(9) ?
  O4 X O7 2_555 . 9_455 83.75(9) ?
  O4 X O6 3_555 . . 66.97(10) ?
  O4 X O6 3_555 . 2_555 122.98(9) ?
  O4 X O6 3_555 . 3_555 122.98(10) ?
  O4 X O7 3_555 . 7_445 83.75(8) ?
  O4 X O7 3_555 . 8_555 146.82(14) ?
  O4 X O7 3_555 . 9_455 83.75(10) ?
  O6 X O6 . . 2_555 110.97(9) ?
  O6 X O6 . . 3_555 110.97(11) ?
  O6 X O7 . . 7_445 57.20(8) ?
  O6 X O7 . . 8_555 146.21(15) ?
  O6 X O7 . . 9_455 57.20(7) ?
  O6 X O6 2_555 . 3_555 110.97(12) ?
  O6 X O7 2_555 . 7_445 57.20(7) ?
  O6 X O7 2_555 . 8_555 57.20(11) ?
  O6 X O7 2_555 . 9_455 146.21(15) ?
  O6 X O7 3_555 . 7_445 146.21(15) ?
  O6 X O7 3_555 . 8_555 57.20(13) ?
  O6 X O7 3_555 . 9_455 57.20(10) ?
  O7 X O7 7_445 . 8_555 112.83(12) ?
  O7 X O7 7_445 . 9_455 112.83(9) ?
  O7 X O7 8_555 . 9_455 112.83(12) ?
  X T O1 . . 5_555 112.74(8) ?
  X T O2 . . 5_555 135.49(10) ?
  X T O6 . . 3_555 56.25(11) ?
  X T O7 . . 8_555 48.98(12) ?
  O1 T O2 5_555 . 5_555 111.50(12) ?
  O1 T O6 5_555 . 3_555 111.49(18) ?
  O1 T O7 5_555 . 8_555 111.09(16) ?
  O2 T O6 5_555 . 3_555 110.34(16) ?
  O2 T O7 5_555 . 8_555 109.14(15) ?
  O6 T O7 3_555 . 8_555 102.96(18) ?
  Z Z Z 8_555 . 15_554 117.34(4) ?
  Z Z Y 8_555 . . 123.48(6) ?
  Z Z Y 15_554 . . 114.02(5) ?
  O3 B O3 . . 5_555 118.5(3) ?
  O3 B O4 . . 2_555 120.73(18) ?
  O3 B O4 5_555 . 2_555 120.7(3) ?
  X Y Z . . . 110.41(5) ?
  X Y Z . . 6_555 110.41(6) ?
  X Y Y . . 2_555 64.67(5) ?
  X Y Y . . 3_555 64.67(5) ?
  X Y O1 . . 3_556 133.81(9) ?
  X Y O1 . . 5_556 133.81(10) ?
  X Y O4 . . . 46.52(9) ?
  X Y O4 . . 2_555 46.52(10) ?
  X Y O5 . . . 92.72(16) ?
  X Y O8 . . 8_555 94.01(12) ?
  Z Y Z . . 6_555 73.28(4) ?
  Z Y Y . . 2_555 113.26(5) ?
  Z Y Y . . 3_555 172.63(7) ?
  Z Y O1 . . 3_556 93.37(7) ?
  Z Y O1 . . 5_556 38.76(8) ?
  Z Y O4 . . . 138.45(11) ?
  Z Y O4 . . 2_555 83.83(5) ?
  Z Y O5 . . . 134.85(10) ?
  Z Y O8 . . 8_555 41.82(12) ?
  Z Y Y 6_555 . 2_555 172.63(5) ?
  Z Y Y 6_555 . 3_555 113.26(5) ?
  Z Y O1 6_555 . 3_556 38.76(9) ?
  Z Y O1 6_555 . 5_556 93.37(11) ?
  Z Y O4 6_555 . . 83.83(7) ?
  Z Y O4 6_555 . 2_555 138.45(11) ?
  Z Y O5 6_555 . . 134.85(11) ?
  Z Y O8 6_555 . 8_555 41.82(14) ?
  Y Y Y 2_555 . 3_555 60.00(5) ?
  Y Y O1 2_555 . 3_556 140.49(10) ?
  Y Y O1 2_555 . 5_556 93.95(11) ?
  Y Y O4 2_555 . . 88.87(7) ?
  Y Y O4 2_555 . 2_555 42.54(8) ?
  Y Y O5 2_555 . . 42.96(11) ?
  Y Y O8 2_555 . 8_555 141.36(15) ?
  Y Y O1 3_555 . 3_556 93.95(7) ?
  Y Y O1 3_555 . 5_556 140.49(11) ?
  Y Y O4 3_555 . . 42.54(8) ?
  Y Y O4 3_555 . 2_555 88.87(7) ?
  Y Y O5 3_555 . . 42.96(11) ?
  Y Y O8 3_555 . 8_555 141.35(13) ?
  O1 Y O1 3_556 . 5_556 89.27(13) ?
  O1 Y O4 3_556 . . 89.48(11) ?
  O1 Y O4 3_556 . 2_555 176.83(11) ?
  O1 Y O5 3_556 . . 97.56(15) ?
  O1 Y O8 3_556 . 8_555 77.72(15) ?
  O1 Y O4 5_556 . . 176.83(13) ?
  O1 Y O4 5_556 . 2_555 89.48(12) ?
  O1 Y O5 5_556 . . 97.56(15) ?
  O1 Y O8 5_556 . 8_555 77.72(14) ?
  O4 Y O4 . . 2_555 91.61(13) ?
  O4 Y O5 . . . 85.49(14) ?
  O4 Y O8 . . 8_555 99.16(15) ?
  O4 Y O5 2_555 . . 85.49(14) ?
  O4 Y O8 2_555 . 8_555 99.16(16) ?
  O5 Y O8 . . 8_555 173.3(2) ?
  T O1 Y 5_555 . 2_554 124.71(13) ?
  X O4 B . . 3_555 122.0(3) ?
  X O4 Y . . . 98.42(9) ?
  X O4 Y . . 3_555 98.42(10) ?
  B O4 Y 3_555 . . 118.9(2) ?
  B O4 Y 3_555 . 3_555 118.86(19) ?
  Y O4 Y . . 3_555 94.91(16) ?
  Y O5 Y . . 2_555 94.1(2) ?
  Y O5 Y . . 3_555 94.1(2) ?
  Y O5 Y 2_555 . 3_555 94.1(2) ?
  X O6 T . . 2_555 94.54(9) ?
  X O6 T . . 4_555 94.54(15) ?
  T O6 T 2_555 . 4_555 140.8(2) ?
  X O7 T 13_554 . 15_554 102.05(9) ?
  X O7 T 13_554 . 16_554 102.05(17) ?
  T O7 T 15_554 . 16_554 128.5(2) ?
loop_
 _refln_index_h
 _refln_index_k
 _refln_index_l
 _refln_F_squared_calc
 _refln_F_squared_meas
 _refln_F_squared_sigma
 _refln_observed_status
  -1   2   0    67.31    30.40     3.06 o
  -3   3   0  8054.60  7451.91   159.92 o
  -4   5   0  8663.09  8817.28   273.90 o
  -3   6   0  1027.94  1286.15    61.22 o
  -6   6   0  7624.53  7537.82   243.60 o
  -2   7   0   844.11   796.77    33.51 o
  -4   8   0  9755.08  9991.07   322.60 o
  -1   8   0  1625.18  1644.28    57.06 o
  -9   9   0 26966.90 25772.90   774.77 o
  -5  10   0 81142.80 78274.60  1589.90 o
  -8  10   0 11938.30 11997.10   390.76 o
  -4  11   0 17991.00 17512.10   552.35 o
  -7  11   0 18004.80 17988.60   399.72 o
  -6  12   0 41761.30 39050.20  1164.19 o
  -3  12   0 18115.10 17990.90   572.17 o
  -9  12   0 18089.80 17529.10   397.15 o
   0  12   0  4902.14  4566.22   188.36 o
  -5  13   0  3724.76  3633.69   163.89 o
  -8  13   0  3711.49  3883.35   119.97 o
  -2  13   0  3653.07  3710.96   161.16 o
 -11  13   0  3673.07  3321.14   160.76 o
  -7  14   0  1000.14   844.98    48.70 o
  -4  14   0   811.51   862.96    49.56 o
 -10  14   0   807.67   799.94    49.52 o
  -1  14   0   608.05   597.41    59.10 o
 -13  14   0   608.94   616.57    63.92 o
  -6  15   0  5398.72  5859.46   235.77 o
  -9  15   0  5415.80  5650.87   167.92 o
  -3  15   0   943.06  1012.30    78.09 o
 -12  15   0   941.32   848.61    75.88 o
 -15  15   0 17962.20 18370.30   608.94 o
  -5  16   0  4818.55  4699.54   150.98 o
 -11  16   0  4819.15  4792.51   152.53 o
  -2  16   0  1016.72   983.53    81.79 o
 -14  16   0  1017.37   886.30    80.55 o
  -7  17   0   407.77   375.22    36.18 o
 -10  17   0   402.15   423.36    36.90 o
  -4  17   0  1893.09  1745.07   120.24 o
 -13  17   0  1891.12  1892.81   122.66 o
 -16  17   0 11276.50 11829.00   434.35 o
  -9  18   0  1286.49  1188.36    66.66 o
  -6  18   0   272.69   217.14    28.52 o
 -12  18   0   262.70   265.80    31.04 o
  -3  18   0  4115.71  4584.41   215.92 o
 -15  18   0  4117.06  4312.03   214.63 o
  -8  19   0  3797.05  3884.19   140.85 o
 -11  19   0  3799.43  3869.92   142.82 o
  -5  19   0   377.56   315.57    53.71 o
 -14  19   0   371.55   414.55    56.98 o
  -2  19   0    48.48   -14.78    11.22 <
 -17  19   0    47.67    12.01    10.14 <
 -10  20   0  9655.96  8782.76   253.80 o
  -7  20   0  2860.27  2702.83   119.02 o
 -13  20   0  2860.07  2883.54   121.27 o
  -2   3   1 12765.60 12243.00   341.42 o
  -1   3  -1 12680.90 11800.50   248.52 o
   0   4  -1  1830.36  2358.60    86.63 o
  -3   4  -1  3249.98  3639.58   124.76 o
  -3   5   1  6041.32  6080.44   134.87 o
  -5   6   1 19743.20 20254.20   420.88 o
  -1   6  -1 19946.10 20302.90   603.40 o
  -4   6  -1  3770.46  3544.98   130.08 o
   0   7  -1  2464.01  3006.96    83.50 o
  -4   7   1 16085.50 17367.10   525.77 o
  -1   7   1 13088.80 12229.90   383.61 o
  -6   8   1 13541.20 13428.90   294.00 o
  -2   8  -1 13484.20 13504.50   297.84 o
  -3   8   1  1389.69  1587.52    55.33 o
  -5   8  -1  1389.89  1507.00    76.10 o
  -8   9   1  5710.20  6293.52   224.34 o
  -5   9   1  2085.19  2293.13    73.40 o
  -4   9  -1  2059.86  2314.81    74.38 o
  -7   9  -1 22841.20 22498.80   683.63 o
 -10  10   1 70934.20 71243.90  2052.57 o
  -3  10  -1  2398.32  2442.83   112.82 o
  -4  10   1 10096.60 10780.90   356.97 o
  -1  10   1  7463.57  8105.72   278.33 o
  -9  10  -1  7514.92  7699.03   279.75 o
  -9  11   1  2111.67  2202.83    75.04 o
  -2  11  -1  2116.54  2166.05    75.98 o
  -6  11   1 16807.10 17539.20   536.31 o
  -5  11  -1 16894.80 16786.30   381.55 o
  -8  11  -1  6051.09  5835.97   224.99 o
 -11  12   1 16605.20 16583.50   374.03 o
  -1  12  -1 16669.40 16222.60   371.80 o
  -8  12   1  2915.31  2755.19   129.35 o
  -4  12  -1  2898.56  2839.51    94.76 o
  -5  12   1  5881.48  5838.94   225.33 o
  -7  12  -1  5814.10  5721.20   221.57 o
 -10  12  -1  5459.79  5661.64   224.24 o
 -13  13   1  3687.50  3870.87   170.68 o
  -3  13  -1  7995.70  8092.31   208.59 o
  -7  13   1  1744.39  1736.56    70.07 o
  -6  13  -1  1731.00  1703.07   100.33 o
  -4  13   1  1330.60  1273.05    84.92 o
  -9  13  -1  1340.91  1296.78    60.44 o
 -12  13  -1    18.56     2.18     2.63 <
 -12  14   1  5965.68  5868.44   168.34 o
  -2  14  -1  5932.87  5842.56   168.24 o
  -9  14   1  3805.95  3506.45   169.00 o
  -5  14  -1  3781.17  3751.40   121.13 o
  -6  14   1  2272.15  1944.74   118.16 o
  -8  14  -1  2293.33  2300.50    87.04 o
  -3  14   1  5009.83  4509.03   202.59 o
 -11  14  -1  4997.02  5072.55   213.02 o
 -14  15   1   807.54   731.80    47.40 o
  -1  15  -1   820.49   810.67    68.54 o
 -11  15   1  8366.84  8845.54   235.50 o
  -4  15  -1  8412.23  9199.40   236.82 o
  -8  15   1   701.55   810.08    47.78 o
  -7  15  -1   703.81   690.10    46.20 o
  -5  15   1 11951.40 12583.50   438.24 o
 -10  15  -1 12018.20 12741.70   314.76 o
  -2  15   1  3839.06  3859.41   185.01 o
 -13  15  -1  3814.71  4055.79   190.96 o
 -16  16   1  1733.50  1816.08   113.67 o
   0  16  -1  1777.29  1723.93   110.56 o
 -13  16   1  5306.42  5424.45   167.05 o
  -3  16  -1  5297.80  5511.02   166.83 o
 -10  16   1  6006.90  5913.77   177.83 o
  -6  16  -1  6053.17  6057.69   177.62 o
  -7  16   1  7256.29  7549.00   211.60 o
  -9  16  -1  7281.13  7765.13   304.13 o
  -4  16   1  7853.39  8180.93   319.05 o
 -15  17   1    97.47   134.53    18.49 o
  -2  17  -1    94.05   108.06    26.21 o
 -12  17   1  1076.98  1013.97    60.11 o
  -5  17  -1  1058.87   984.09    60.79 o
  -9  17   1  4816.13  4686.88   150.97 o
  -8  17  -1  4796.43  4640.86   153.95 o
  -6  17   1 10563.40 10729.60   379.58 o
 -11  17  -1 10635.70 10077.70   277.53 o
  -3  17   1  2135.77  2172.17   135.90 o
 -14  17  -1  2153.55  2046.31   134.51 o
 -17  18   1  1530.58  1567.75    78.05 o
  -1  18  -1  1525.63  1467.57   109.80 o
 -14  18   1   981.98  1079.42    63.10 o
  -4  18  -1   987.18  1012.81    62.37 o
 -11  18   1  2630.38  2663.57   108.68 o
  -7  18  -1  2652.72  2671.51   107.99 o
  -8  18   1  2355.92  2128.09    96.96 o
 -10  18  -1  2336.72  2251.80   138.53 o
  -5  18   1   640.76   594.67    67.00 o
 -13  18  -1   636.60   622.48    67.69 o
 -19  19   1  2387.84  2525.60   153.45 o
 -16  19   1   493.43   473.64    62.26 o
  -3  19  -1   481.47   494.93    62.29 o
 -13  19   1  4369.53  4317.55   155.15 o
  -6  19  -1  4334.38  4442.81   216.15 o
 -10  19   1   940.40   935.49    62.53 o
  -9  19  -1   930.50   993.21    64.28 o
  -7  19   1  2118.08  1895.69    91.85 o
 -12  19  -1  2113.96  2054.73   135.65 o
  -4  19   1  4606.30  4521.91   232.03 o
 -15  19  -1  4600.91  5070.76   241.01 o
 -15  20   1  5468.62  5536.35   255.61 o
  -5  20  -1  5470.37  5604.32   258.98 o
 -12  20   1   919.90  1031.11    65.48 o
  -8  20  -1   900.98   818.98    59.88 o
  -9  20   1  1302.89  1202.68    73.99 o
 -11  20  -1  1324.37  1190.48    74.84 o
  -3   4   2  4718.62  4595.20   145.26 o
  -1   4  -2  4767.26  4917.25   155.86 o
  -5   5   2 28290.10 27618.50   803.31 o
  -3   5  -2 12411.80 12507.80   383.50 o
  -4   6   2  9226.29 10034.70   299.82 o
  -2   6  -2  9190.54 10344.00   224.74 o
  -1   7  -2  2268.51  2315.91    68.47 o
  -3   7   2 46491.00 45591.30  1298.77 o
  -4   7  -2 46718.10 46046.40  1333.76 o
  -8   8   2  2858.66  2987.51   117.53 o
   0   8  -2  2826.58  2951.68    84.59 o
  -5   8   2   918.59   821.39    52.29 o
  -2   8   2  7378.01  7882.07   265.70 o
  -6   8  -2  7310.85  7694.78   266.21 o
  -7   9   2 15954.80 16437.80   502.20 o
  -2   9  -2 15901.90 16088.60   502.06 o
  -4   9   2  9589.95 10055.90   336.37 o
  -5   9  -2  9575.81 10309.70   338.71 o
  -9  10   2   912.76   931.96    34.46 o
  -1  10  -2   906.36   872.60    40.17 o
  -6  10   2 16317.10 16249.10   288.70 o
  -4  10  -2 16343.80 15484.60   502.01 o
  -3  10   2   715.94   717.26    54.83 o
 -11  11   2  1442.70  1331.61    81.91 o
   0  11  -2  1436.36  1323.37    56.66 o
  -8  11   2  9923.79 10460.10   173.01 o
  -3  11  -2  9942.39 10373.30   345.51 o
  -5  11   2 13047.50 13089.20   422.92 o
  -6  11  -2 13096.10 12400.80   292.42 o
 -10  12   2  3584.03  3453.55    74.81 o
  -2  12  -2  3540.36  3519.66   103.31 o
  -7  12   2  4955.54  5137.41   137.18 o
  -5  12  -2  4922.91  5190.48   204.50 o
  -4  12   2 10328.50 10579.80   360.07 o
  -8  12  -2 10329.60 10154.80   362.25 o
 -12  13   2  5364.97  4925.85   117.94 o
  -1  13  -2  5348.81  5303.79   144.88 o
  -9  13   2  5673.87  5932.74   154.09 o
  -4  13  -2  5638.26  5718.85   161.71 o
  -6  13   2   570.91   494.64    36.25 o
  -7  13  -2   571.28   464.73    35.86 o
  -3  13   2  2541.89  2682.15   136.69 o
 -10  13  -2  2524.71  2590.60   135.46 o
 -14  14   2  2651.63  2698.60    99.41 o
   0  14  -2  2655.87  2891.79   138.92 o
 -11  14   2  1667.64  1791.43    73.42 o
  -3  14  -2  1643.94  1821.92    75.21 o
  -8  14   2 11153.80 11364.50   280.64 o
  -5  14   2  4840.49  5127.62   217.68 o
  -9  14  -2  4824.01  5173.12   218.80 o
 -13  15   2  2339.09  2236.44    84.59 o
  -2  15  -2  2350.58  2218.41    88.95 o
 -10  15   2  3734.38  3598.33   120.41 o
  -5  15  -2  3731.55  3678.59   173.46 o
  -7  15   2  5044.46  5076.74   155.81 o
  -8  15  -2  5043.92  5193.39   156.82 o
  -4  15   2  4722.19  4194.65   197.83 o
 -11  15  -2  4729.22  4587.87   207.53 o
 -15  16   2  2562.03  2451.97    80.23 o
  -1  16  -2  2587.47  2671.86    97.17 o
 -12  16   2  6151.77  6381.80   180.66 o
  -4  16  -2  6162.55  6425.19   185.79 o
  -9  16   2  2704.18  2685.55   104.01 o
  -7  16  -2  2699.63  2756.27   104.93 o
  -6  16   2  4755.54  5175.19   227.68 o
 -17  17   2   228.08   262.81    39.89 o
   0  17  -2   233.01   306.22    41.84 o
 -14  17   2  3125.68  2901.35    89.89 o
  -3  17  -2  3152.17  3114.92   115.30 o
 -11  17   2   428.04   379.39    35.33 o
  -6  17  -2   432.63   480.57    40.17 o
  -8  17   2  3137.75  3159.25   117.31 o
  -9  17  -2  3121.70  2766.80   157.74 o
  -5  17   2   910.32   884.76    82.43 o
 -12  17  -2   895.02   871.38    82.14 o
 -16  18   2  4213.69  4312.22   119.75 o
  -2  18  -2  4234.88  4432.08   206.91 o
 -13  18   2  3872.07  3880.84   138.76 o
  -5  18  -2  3903.92  4033.87   138.99 o
 -10  18   2  1314.06  1295.52    70.98 o
  -8  18  -2  1303.03  1203.23    70.30 o
  -7  18   2  3206.78  3322.48   183.10 o
  -4  18   2   433.87   458.43    58.87 o
 -14  18  -2   426.37   526.52    62.92 o
 -18  19   2  1701.77  1637.41    80.10 o
  -1  19  -2  1680.23  1558.49   113.19 o
 -15  19   2   607.98   507.09    45.79 o
  -4  19  -2   598.13   508.67    45.30 o
 -12  19   2   989.30   983.77    62.40 o
  -7  19  -2   976.74   964.29    62.97 o
  -9  19   2   925.26   946.39    61.57 o
 -10  19  -2   936.20   753.74    57.11 o
  -6  19   2  5260.35  5411.61   258.85 o
 -17  20   2   363.14   365.45    52.80 o
  -3  20  -2   361.58   350.46    51.46 o
 -14  20   2  1077.24  1090.73    94.79 o
  -6  20  -2  1075.82   919.10    91.69 o
 -11  20   2  1054.92   978.85    93.43 o
  -9  20  -2  1062.17   994.78    67.85 o
  -4   5   3   175.62   162.63    12.97 o
  -1   5  -3   172.40   169.79    10.04 o
  -3   6   3 12678.90 12569.90   370.69 o
  -5   7   3  1110.43  1030.71    34.64 o
  -2   7  -3  1115.91  1057.58    41.17 o
  -2   7   3   788.40   807.60    34.21 o
  -7   8   3  5046.98  5230.78   183.43 o
  -1   8  -3  5025.81  5236.23    92.42 o
  -4   8   3   894.94   890.49    27.08 o
   0   9  -3  5777.20  5225.22   195.58 o
  -6   9   3 15293.70 15868.30   495.54 o
  -3   9  -3 15310.80 15607.90   342.70 o
  -8  10   3  1433.00  1415.91    53.03 o
  -2  10  -3  1415.37  1468.89    45.75 o
  -5  10   3 10252.00 10218.10   222.09 o
 -10  11   3 24639.90 23437.90   405.03 o
  -1  11  -3 24535.10 22645.50   408.38 o
  -7  11   3  2412.47  2393.46    78.34 o
  -4  11  -3  2387.18  2403.28    83.14 o
  -7  11  -3  2462.54  2293.06   119.06 o
 -12  12   3  1859.67  1935.73    74.71 o
   0  12  -3  1885.81  1991.87    74.61 o
  -9  12   3  7012.23  7462.51   270.47 o
  -3  12  -3  6991.41  7213.78   181.42 o
  -6  12   3   708.41   633.18    33.75 o
  -6  12  -3   697.94   584.78    55.31 o
 -11  13   3  1822.25  1796.80    57.49 o
  -2  13  -3  1838.23  1881.36    70.36 o
  -8  13   3   604.31   547.17    26.51 o
  -5  13  -3   590.67   569.94    37.97 o
  -8  13  -3  5606.49  5843.78   240.43 o
 -13  14   3  1280.92  1349.71    43.49 o
  -1  14  -3  1271.41  1320.69    49.78 o
 -10  14   3     4.96     2.71     1.95 <
  -4  14  -3     5.94     5.06     4.99 <
 -15  15   3 10879.60 11198.40   278.38 o
   0  15  -3 10834.60 11035.10   278.51 o
 -12  15   3  3820.61  3706.99    83.70 o
  -3  15  -3  3822.63  3572.72   169.28 o
  -9  15   3  9944.05 10049.60   258.80 o
  -6  15  -3  9949.90 10018.90   364.48 o
  -6  15   3  7722.00  7603.91   304.23 o
  -9  15  -3  7684.36  7863.25   305.04 o
 -14  16   3  1529.68  1538.53    59.04 o
  -2  16  -3  1528.16  1557.95    58.43 o
 -11  16   3   224.66   218.65    19.62 o
  -5  16  -3   223.06   204.97    24.80 o
  -8  16   3  6072.84  6270.36   263.98 o
  -8  16  -3  6099.37  6335.56   265.28 o
 -11  16  -3 11331.80 11116.60   418.23 o
 -16  17   3  2696.13  2748.08    75.17 o
  -1  17  -3  2686.10  2722.09    85.74 o
 -13  17   3  3724.09  3857.12   102.93 o
  -4  17  -3  3752.91  3479.83   127.41 o
 -10  17   3  3438.33  3290.47   123.02 o
  -7  17  -3  3464.03  3545.54   126.46 o
 -10  17  -3  4338.93  4544.59   218.13 o
 -18  18   3  2754.25  2805.34   111.39 o
   0  18  -3  2756.58  2793.32   152.16 o
 -15  18   3   845.49   848.16    43.74 o
  -3  18  -3   855.43   896.44    56.98 o
 -12  18   3  6802.83  6956.75   161.42 o
  -6  18  -3  6776.65  6623.75   205.35 o
  -9  18   3  7395.21  7277.25   309.59 o
  -9  18  -3  7363.75  7456.30   311.61 o
  -6  18   3  1110.52   978.58    95.35 o
 -12  18  -3  1099.38  1078.28    97.46 o
 -17  19   3  5656.94  5605.61   182.24 o
  -2  19  -3  5651.79  5750.15   181.16 o
 -14  19   3   444.77   441.91    32.03 o
  -5  19  -3   453.07   433.20    39.81 o
 -11  19   3  1898.16  1884.67    91.53 o
  -8  19  -3  1894.73  1922.76    92.38 o
  -8  19   3   426.62   457.92    59.76 o
 -11  19  -3   426.31   369.52    55.82 o
 -19  20   3  1348.98  1279.18    70.40 o
  -1  20  -3  1342.60  1424.68   105.45 o
 -16  20   3   525.31   534.79    42.70 o
  -4  20  -3   521.09   544.34    65.51 o
 -13  20   3   636.10   648.65    71.85 o
  -7  20  -3   628.73   765.69    76.70 o
 -18  21   3  1498.15  1511.13   106.91 o
  -1   6  -4 55869.00 59465.60  1700.11 o
  -4   6  -4  9409.90  9390.81   276.54 o
  -7   7   4  7108.64  6537.64   223.74 o
  -4   7   4 39336.40 36318.70  1042.49 o
  -3   7  -4 39458.30 30520.20   871.80 o
  -6   8   4  6950.48  6586.18   160.06 o
  -2   8  -4  6965.77  6812.08   221.24 o
  -3   8   4 14543.70 14379.00   420.82 o
  -8   9   4  3670.38  3387.37   139.43 o
  -1   9  -4  3675.99  3532.26   100.23 o
  -5   9   4 11460.10 11667.50   356.28 o
  -4   9  -4 11407.10 11808.20   257.98 o
 -10  10   4 18036.30 18282.00   549.60 o
   0  10  -4 17959.60 17582.70   391.92 o
  -7  10   4  2316.65  2212.54    57.34 o
  -3  10  -4  2349.71  2323.80    89.64 o
  -4  10   4  2365.10  2478.44    91.86 o
  -1  10   4  3618.04  3238.56   102.74 o
  -9  11   4  1530.46  1531.66    60.32 o
  -2  11  -4  1543.00  1538.37    47.57 o
  -6  11   4  4104.09  4161.95    89.74 o
  -3  11   4  2569.33  2658.59    63.82 o
 -11  12   4  3004.79  2988.64    67.08 o
  -1  12  -4  2997.69  2910.58    67.23 o
  -8  12   4  1181.14  1101.73    55.44 o
  -4  12  -4  1191.15  1086.24    45.33 o
  -5  12   4  1677.20  1850.19    52.85 o
 -13  13   4    56.82    39.82    10.08 o
   0  13  -4    52.83    65.83    19.35 o
 -10  13   4   378.39   356.07    21.36 o
  -3  13  -4   375.10   379.82    23.43 o
  -7  13   4 10653.30 11176.00   264.13 o
  -6  13  -4 10680.90 10893.00   389.49 o
  -4  13   4  8912.79  9091.56   275.58 o
 -12  14   4  4198.40  4151.38   131.46 o
  -2  14  -4  4205.93  4396.76   132.52 o
  -9  14   4  1476.91  1505.21    48.57 o
  -5  14  -4  1479.87  1441.69    96.96 o
  -6  14   4 10161.30 10291.80   319.60 o
  -8  14  -4 10197.30 10636.10   381.56 o
 -14  15   4  2812.36  2826.11    71.32 o
  -1  15  -4  2822.80  2761.07    69.72 o
 -11  15   4  7174.17  7178.94   153.02 o
  -4  15  -4  7136.72  7135.13   197.86 o
  -8  15   4   900.46   849.78    35.29 o
  -7  15  -4   891.23   839.22    75.17 o
 -16  16   4 13946.00 14148.50   340.62 o
   0  16  -4 13908.80 13984.00   341.28 o
 -13  16   4  1211.66  1179.82    41.84 o
  -3  16  -4  1207.72  1221.75    49.03 o
 -10  16   4 15201.30 15532.30   293.58 o
  -6  16  -4 15128.00 16268.50   551.95 o
  -7  16   4  4576.41  4549.85   134.61 o
  -9  16  -4  4591.31  4702.43   218.16 o
 -15  17   4  2112.14  2070.70    61.51 o
  -2  17  -4  2122.71  2142.41    71.65 o
 -12  17   4  2890.21  2948.16    83.90 o
  -5  17  -4  2871.86  2773.35   109.06 o
  -9  17   4  1259.79  1294.30    60.02 o
  -8  17  -4  1266.67  1415.08   103.12 o
 -17  18   4  1986.56  1969.37    62.73 o
  -1  18  -4  1988.09  2024.31    71.74 o
 -14  18   4  3516.16  3374.25    84.59 o
  -4  18  -4  3551.24  3460.85   125.22 o
 -11  18   4   429.41   472.46    36.68 o
  -7  18  -4   432.32   416.50    40.01 o
  -8  18   4   853.12   843.98    83.73 o
 -10  18  -4   853.63  1006.31    90.19 o
 -19  19   4  4107.56  4318.47   200.68 o
   0  19  -4  4102.33  4231.68   202.91 o
 -16  19   4    42.33    10.29     5.47 <
  -3  19  -4    44.32    20.36     9.14 <
 -13  19   4    20.09     4.00     7.07 <
  -6  19  -4    21.66    13.17     9.64 <
 -10  19   4   697.53   803.83    77.85 o
  -9  19  -4   702.15   681.07    73.90 o
 -18  20   4   422.94   447.07    39.55 o
  -2  20  -4   426.28   470.76    58.63 o
 -15  20   4  4744.27  4697.28   148.76 o
  -5  20  -4  4751.81  4671.27   225.10 o
 -20  21   4  3683.93  3365.32   177.70 o
 -17  21   4   828.26   856.56    70.49 o
 -19  22   4   956.23  1076.37    86.21 o
  -2   6  -5    77.23    23.73     8.00 <
  -1   7  -5  6267.95  6187.72   203.07 o
  -4   7  -5  5985.14  6117.52   192.28 o
   0   8  -5  4402.83  4320.28   114.64 o
  -3   8  -5   100.06    93.87     9.31 o
  -7   9   5  2447.41  2282.95   102.82 o
  -2   9  -5  2439.25  2546.22   104.55 o
  -5   9  -5  2133.90  2117.32    79.56 o
  -9  10   5   932.04   936.86    43.90 o
  -1  10  -5   937.56   922.58    35.07 o
  -4  10  -5  5004.57  5116.49   133.82 o
 -11  11   5  4247.05  3947.74   165.64 o
  -8  11   5   700.12   740.18    48.66 o
  -3  11  -5   692.40   700.75    35.80 o
  -5  11   5 34545.90 33830.10   975.93 o
 -10  12   5   952.15   880.99    67.79 o
  -2  12  -5   945.66   889.73    34.86 o
  -7  12   5  5879.64  6240.93   212.88 o
  -5  12  -5  5858.24  6180.22   244.87 o
  -4  12   5  2773.26  2793.68    97.86 o
 -12  13   5  4224.33  4124.40   127.68 o
  -1  13  -5  4232.78  4296.18    89.18 o
  -9  13   5  3682.54  3646.67   111.22 o
  -4  13  -5  3682.46  3559.94   169.44 o
  -6  13   5  1589.01  1555.59    69.63 o
  -3  13   5  6481.85  6391.61   197.39 o
 -14  14   5  3034.70  2920.82   146.29 o
   0  14  -5  3013.73  2952.62   100.18 o
 -11  14   5  2536.17  2567.29    71.05 o
  -3  14  -5  2527.26  2547.15    62.24 o
  -8  14   5  1603.40  1612.42    79.63 o
  -6  14  -5  1590.71  1656.36   105.86 o
  -5  14   5  4893.43  5069.94   170.17 o
  -2  14   5  1183.16  1138.04    46.71 o
 -13  15   5   321.10   303.11    22.48 o
  -2  15  -5   318.85   329.13    20.15 o
 -10  15   5 17550.20 17979.20   398.82 o
  -5  15  -5 17645.50 18302.40   581.67 o
  -7  15   5  3147.26  3071.50   122.36 o
  -4  15   5   881.29   862.31    44.08 o
 -15  16   5  8909.49  8964.33   232.23 o
  -1  16  -5  8919.42  8953.66   165.12 o
 -12  16   5  6070.75  6092.37   136.39 o
  -4  16  -5  6084.19  5939.97   178.24 o
  -9  16   5  2129.81  2098.74    62.56 o
  -7  16  -5  2148.49  2162.39   134.88 o
  -6  16   5  6210.67  5873.74   136.71 o
 -17  17   5  2334.93  2458.89    97.53 o
   0  17  -5  2319.76  2432.30    96.63 o
 -14  17   5  3858.51  3830.17   101.36 o
  -3  17  -5  3853.27  3775.06   102.67 o
 -11  17   5  4980.46  5221.51   122.10 o
  -6  17  -5  5018.71  5006.42   237.04 o
  -8  17   5    86.76    96.43    11.02 o
  -9  17  -5    86.26   117.99    29.03 o
  -5  17   5  2220.06  2319.52    83.34 o
 -16  18   5   323.45   298.07    25.40 o
  -2  18  -5   322.55   311.41    24.80 o
 -13  18   5   710.65   789.61    38.90 o
  -5  18  -5   725.71   779.72    53.03 o
 -10  18   5   391.21   351.29    23.86 o
  -8  18  -5   389.42   321.57    49.95 o
  -7  18   5  2083.77  1922.69    80.12 o
 -18  19   5   384.67   354.72    28.02 o
  -1  19  -5   386.60   376.11    33.57 o
 -15  19   5  1055.26  1063.96    54.25 o
  -4  19  -5  1049.47  1074.45    63.95 o
 -12  19   5   436.42   390.01    35.49 o
  -9  19   5   482.24   492.40    37.47 o
 -20  20   5  2576.32  2316.68   138.18 o
   0  20  -5  2596.17  2374.90   139.83 o
 -17  20   5   312.40   331.74    30.88 o
  -3  20  -5   311.48   301.87    45.20 o
 -14  20   5   926.55  1074.42    70.13 o
  -6  20  -5   934.30  1038.71    90.52 o
 -19  21   5   704.89   761.24    70.61 o
 -16  21   5  7554.85  7125.96   267.37 o
 -18  22   5   942.63   901.81    71.39 o
 -20  23   5   998.70   985.11    83.37 o
  -3   6  -6  3877.13  3682.92   130.25 o
  -1   8  -6   362.48   386.49    26.34 o
  -4   8  -6  4271.11  4418.31   150.19 o
   0   9  -6 11398.00 12916.70   418.31 o
  -2  10  -6   404.66   408.33    21.99 o
  -5  10  -6 14699.40 13597.70   412.19 o
  -1  11  -6  3214.05  3385.46    83.27 o
  -4  11  -6  1952.99  1942.05    57.64 o
 -12  12   6  6422.12  6598.95   231.11 o
   0  12  -6  6407.38  6514.70   230.55 o
  -9  12   6  6539.55  6802.47   231.25 o
  -3  12  -6  6559.92  6544.72   175.57 o
 -11  13   6    13.82    10.89     8.25 <
  -2  13  -6    14.99    10.86     4.42 <
  -8  13   6   443.72   448.79    35.42 o
 -13  14   6   939.45   963.40    51.08 o
  -1  14  -6   932.88   915.19    33.83 o
  -4  14  -6  1289.61  1283.95    44.87 o
 -15  15   6  4807.40  5008.82   213.31 o
   0  15  -6  4839.86  4801.29   144.68 o
 -12  15   6    42.71    29.77     7.95 o
  -3  15  -6    42.25    35.86     7.01 o
  -9  15   6   139.40   116.77    18.89 o
  -6  15  -6   140.15   167.25    32.61 o
 -14  16   6   370.46   300.22    27.51 o
  -2  16  -6   363.03   396.29    25.26 o
 -11  16   6  2981.81  2870.48   130.16 o
  -5  16  -6  2989.15  3364.95   175.68 o
  -8  16   6   724.22   703.40    46.61 o
 -16  17   6   486.16   522.60    40.88 o
  -1  17  -6   493.89   568.80    28.35 o
 -13  17   6  2756.75  2749.90   103.58 o
  -4  17  -6  2745.10  3015.15   158.57 o
 -10  17   6  1453.13  1447.33    79.11 o
  -7  17  -6  1433.49  1589.64   115.26 o
  -7  17   6  1623.18  1596.37    74.32 o
 -18  18   6  1494.65  1443.57   103.50 o
   0  18  -6  1509.11  1573.20    74.12 o
 -15  18   6   110.74   108.43    17.59 o
  -3  18  -6   110.53   131.33    16.09 o
 -12  18   6   833.40   798.87    49.66 o
  -6  18  -6   832.73   864.22    82.93 o
  -9  18   6  4741.44  4236.98   163.16 o
 -17  19   6   364.38   324.39    45.11 o
  -2  19  -6   353.44   306.38    29.42 o
 -14  19   6   117.99   109.94    24.96 o
 -11  19   6   519.87   441.99    41.38 o
  -1  20  -6   582.79   633.10    43.75 o
 -16  20   6   588.34   579.06    62.33 o
  -4  20  -6   599.75   621.35    68.14 o
 -18  21   6   474.14   468.30    56.48 o
  -3   7  -7  5166.55  5395.15   183.71 o
  -6   7  -7   382.60   416.36    21.26 o
  -2   8  -7   498.01   531.32    40.85 o
  -5   8  -7  3227.62  3219.14   111.03 o
  -1   9  -7   669.27   648.72    48.74 o
  -4   9  -7   270.92   271.95    15.71 o
   0  10  -7  1269.92  1192.76    78.78 o
  -3  10  -7  5095.00  5074.42   125.47 o
  -2  11  -7   521.86   476.22    24.21 o
  -5  11  -7  8701.77  8840.14   280.10 o
  -1  12  -7   508.42   483.92    26.78 o
  -4  12  -7  1155.12   997.63    60.74 o
   0  13  -7  3293.49  3253.65   105.41 o
  -3  13  -7  1141.67  1244.58    54.44 o
  -2  14  -7  1526.60  1539.32    52.55 o
 -14  15   7   748.88   742.42    62.08 o
  -1  15  -7   751.93   780.73    32.29 o
  -4  15  -7   560.83   583.12    39.22 o
 -16  16   7  2922.68  2914.67   154.90 o
   0  16  -7  2895.34  3076.07   106.44 o
 -13  16   7    17.82    -0.30     2.74 <
  -3  16  -7    18.88    14.50     7.01 <
 -15  17   7  1077.91   960.52    76.56 o
  -2  17  -7  1066.37  1159.24    61.07 o
 -12  17   7  1033.10  1169.21    73.09 o
  -5  17  -7  1039.07  1198.06    95.49 o
 -17  18   7  1862.40  1941.47    86.34 o
  -1  18  -7  1875.65  1926.89    87.53 o
 -14  18   7  5221.53  4882.84   202.28 o
  -4  18  -7  5195.14  5110.81   236.76 o
 -16  19   7   388.83   410.03    47.88 o
 -18  20   7   440.55   366.34    47.55 o
  -2   9  -8   490.60   556.81    43.95 o
  -5   9  -8  7342.02  6840.92   149.92 o
  -1  10  -8   141.55   205.84    27.11 o
  -4  10  -8  2316.07  2205.99    62.40 o
   0  11  -8  1910.38  1836.58   103.48 o
  -3  11  -8   469.94   427.76    37.86 o
  -2  12  -8   544.84   572.36    46.53 o
  -1  13  -8  1092.81  1194.94    57.38 o
  -4  13  -8  3821.23  4039.94   155.94 o
   0  14  -8   135.91   128.43    24.77 o
  -3  14  -8   983.89   991.50    66.65 o
  -2  15  -8  2100.19  2225.98    87.48 o
  -1  16  -8  2370.36  2531.56    96.27 o
   0  17  -8   577.01   560.87    60.81 o
  -3  17  -8  1007.31  1066.87    86.54 o
  -1  19  -8   285.37   254.62    42.82 o
