data_I
loop_
 _publ_author_name
 _publ_author_address
 'Likhacheva, A.Yu.'
; Sobolev Institute of Geology and Mineralogy SB RAS
3 Koptyuga Avenue
630090 Novosibirsk
RUSSIA
;
 'Rashchenko, S.V.'
; Sobolev Institute of Geology and Mineralogy SB RAS
3 Koptyuga Avenue
630090 Novosibirsk
RUSSIA
Novosibirsk State University
1 Pirogova Street
630090 Novosibirsk
RUSSIA
;
 'Musiyachenko, K.A.'
; Sobolev Institute of Geology and Mineralogy SB RAS
3 Koptyuga Avenue
630090 Novosibirsk
RUSSIA
;
 'Korsakov, A.V.'
; Sobolev Institute of Geology and Mineralogy SB RAS
3 Koptyuga Avenue
630090 Novosibirsk
RUSSIA
;
 'Collings, I.E.'
; European Synchrotron Radiation Facility
71 Avenue des Martyrs
38000 Grenoble
FRANCE
;
 'Hanfland, M'
; European Synchrotron Radiation Facility
71 Avenue des Martyrs
38000 Grenoble
FRANCE
;
_publ_section_title
; Compressibility and structure behaviour of maruyamaite (K-tourmaline)
from the Kokchetav massif at high pressure up to 20 GPa
;
_publ_section_abstract
;
The structural behaviour of maruyamaite (K-dominant tourmaline)
X(K0.54Na0.28Ca0.19)Y(Mg1.3Al1.17Fe0.39Ti0.14)Z(Al5Mg)
[Si5.95Al0.05O18](BO3)3(O0.23(OH)0.77)3O
from the ultrahigh-pressure metamorphic rocks of Kokchetav massif
was studied using synchrotron based single-crystal diffraction up to 20 GPa.
Within the whole pressure range the compression is regular and anisotropic,
with the c direction being more compressible than the a direction.
Fitting the V/P data with the 2nd and 3rd order
Birch-Murnaghan equations of state gives: V0 =1587.2(7) A3, K0 = 115.6(9) GPa
at fixed K'= 4, and V0 =1588(1) A3, K0 = 112(3) GPa, K' = 4.5(4).
The bulk modulus values are slightly higher as compared to those
found for dravite and cation-deficient synthetic K-dravite.
The pressure evolution of the main structural parameters of K-tourmaline
is similar to those of dravite. However, a minor change in the rigidity
of local contacts of the X site with 6-membered ring, due to the presence of K,
is apparently critical for stabilization of tourmaline structure
within 15-20 GPa, which is evinced by the absence of the phase transition
observed in dravite near 15.4 GPa. The stabilizing function of K
becomes apparent at P > 15 GPa. The comparison of the HP structural behaviour
of maruyamaite and dravite supports the recent suggestion that the large X site
plays a secondary role in the elastic behaviour of tourmaline,
compared to the octahedral framework. In addition, the present study reveals
several new features of polyhedra distortions, which demonstrate
their complex interaction on compression.
;
_publ_requested_journal                  'Mineralogy and Petrology'
_publ_contact_author_name                'Likhacheva, A.Yu'
_publ_contact_author_email               alih@igm.nsc.ru
_publ_contact_author_address
; Sobolev Institute of Geology and Mineralogy SB RAS
3 Koptyuga Avenue
630090 Novosibirsk
RUSSIA
;
_chemical_name_mineral                   maruyamaite
_chemical_formula_sum
'Al6.22 B3 Ca0.19 Fe0.39 H2.31 K0.54 Mg2.3 Na0.28 O31 Si5.95 Ti0.14'
_chemical_formula_weight                 985.2
_chemical_compound_source                'Kokchetav Massif (Kumdy-Kol area, northern Kazakhstan)'
_chemical_absolute_configuration         unk
_symmetry_cell_setting                   trigonal
_symmetry_space_group_name_H-M           'R 3 m'
_symmetry_space_group_name_Hall          'R 3;-2"'
_symmetry_Int_Tables_number              160
loop_
 _space_group_symop_id
 _space_group_symop_operation_xyz
 1   x,y,z
 2   -y,x-y,z
 3   -x+y,-x,z
 4   -y,-x,z
 5   -x+y,y,z
 6   x,x-y,z
 7   x+2/3,y+1/3,z+1/3
 8   -y+2/3,x-y+1/3,z+1/3
 9   -x+y+2/3,-x+1/3,z+1/3
 10  -y+2/3,-x+1/3,z+1/3
 11  -x+y+2/3,y+1/3,z+1/3
 12  x+2/3,x-y+1/3,z+1/3
 13  x+1/3,y+2/3,z+2/3
 14  -y+1/3,x-y+2/3,z+2/3
 15  -x+y+1/3,-x+2/3,z+2/3
 16  -y+1/3,-x+2/3,z+2/3
 17  -x+y+1/3,y+2/3,z+2/3
 18  x+1/3,x-y+2/3,z+2/3
_cell_length_a                           15.905(3)
_cell_length_b                           15.905(3)
_cell_length_c                           7.1825(14)
_cell_angle_alpha                        90
_cell_angle_beta                         90
_cell_angle_gamma                        120
_cell_volume                             1573.5(5)
_cell_formula_units_Z                    3
_cell_measurement_reflns_used            523
_cell_measurement_theta_min              2.57
_cell_measurement_theta_max              20.94
_cell_measurement_temperature            293
_exptl_crystal_density_diffrn            3.1191
_exptl_crystal_F_000                     1428
_exptl_absorpt_coefficient_mu            0.301
_exptl_crystal_description               platelet
_exptl_crystal_size_max                  0.040
_exptl_crystal_size_mid                  0.035
_exptl_crystal_size_min                  0.020
_exptl_crystal_colour                    brownish
_exptl_absorpt_correction_type           'multi-scan'
_exptl_absorpt_process_details
;
CrysAlisPro 1.171.39.46 (Rigaku Oxford Diffraction, 2018)
Empirical absorption correction using spherical harmonics,
 implemented in SCALE3 ABSPACK scaling algorithm.
;
_exptl_absorpt_correction_T_min          0.99
_exptl_absorpt_correction_T_max          1
_diffrn_ambient_temperature              293
_diffrn_ambient_pressure                 990000
_diffrn_source                           'ESRF ID15B'
_diffrn_radiation_type                   'synchrotron'
_diffrn_radiation_wavelength             0.41122
_diffrn_radiation_monochromator          'Si(111) Bragg'
_diffrn_detector                         'MAR555 flat panel'
_diffrn_detector_area_resol_mean         7.2
_diffrn_measurement_device               'one-axis goniometer'
_diffrn_measurement_method               '\f scans'
_diffrn_reflns_number                    1038
_diffrn_reflns_theta_min                 1.48
_diffrn_reflns_theta_max                 21.04
_diffrn_reflns_theta_full                15.51
_diffrn_measured_fraction_theta_max      0.38
_diffrn_measured_fraction_theta_full     0.64
_diffrn_reflns_av_R_equivalents          0.0284
_diffrn_reflns_av_unetI/netI             0.0332
_diffrn_reflns_limit_h_min               -19
_diffrn_reflns_limit_h_max               21
_diffrn_reflns_limit_k_min               -21
_diffrn_reflns_limit_k_max               21
_diffrn_reflns_limit_l_min               -8
_diffrn_reflns_limit_l_max               9
_diffrn_radiation_probe                  X-ray
_refine_special_details
; Electron density of each mixed site was approximated by
corresponding occupancy of its major constituent
(0.79K for X, 0.95Si for T, 0.96Al for Z, 1.20Mg for Y).
;
_reflns_special_details
; Reflections outside DAC opening angle were omitted
during integration in CrysAlisPro software.
;
_reflns_number_total                     642
_reflns_number_gt                        633
_reflns_threshold_expression             'I>3\s(I)'
_refine_ls_structure_factor_coef         F
_refine_ls_R_factor_gt                   0.0213
_refine_ls_wR_factor_gt                  0.0270
_refine_ls_R_factor_all                  0.0215
_refine_ls_wR_factor_ref                 0.0273
_refine_ls_goodness_of_fit_ref           1.31
_refine_ls_goodness_of_fit_gt            1.31
_refine_ls_number_reflns                 642
_refine_ls_number_parameters             87
_refine_ls_number_restraints             0
_refine_ls_number_constraints            1
_refine_ls_weighting_scheme              sigma
_refine_ls_weighting_details             'w=1/(\s^2^(F)+0.0001F^2^)'
_refine_ls_hydrogen_treatment            'constr'
_refine_ls_shift/su_max                  0.0283
_refine_ls_shift/su_mean                 0.0018
_refine_diff_density_max                 0.28
_refine_diff_density_min                 -0.39
_refine_ls_extinction_method             'none'
loop_
 _atom_type_symbol
 _atom_type_scat_dispersion_real
 _atom_type_scat_dispersion_imag
 _atom_type_scat_source
 Al   0.0199  0.0165
 'International Tables Vol C tables 4.2.6.8 and 6.1.1.1'
 B   -0.0004  0.0002
 'International Tables Vol C tables 4.2.6.8 and 6.1.1.1'
 Ca   0.0951  0.1050
 'International Tables Vol C tables 4.2.6.8 and 6.1.1.1'
 Fe   0.1968  0.3058
 'International Tables Vol C tables 4.2.6.8 and 6.1.1.1'
 H    0.0000  0.0000
 'International Tables Vol C tables 4.2.6.8 and 6.1.1.1'
 K    0.0805  0.0845
 'International Tables Vol C tables 4.2.6.8 and 6.1.1.1'
 Mg   0.0142  0.0116
 'International Tables Vol C tables 4.2.6.8 and 6.1.1.1'
 Na   0.0096  0.0078
 'International Tables Vol C tables 4.2.6.8 and 6.1.1.1'
 O    0.0018  0.0018
 'International Tables Vol C tables 4.2.6.8 and 6.1.1.1'
 Si   0.0267  0.0229
 'International Tables Vol C tables 4.2.6.8 and 6.1.1.1'
 Ti   0.1267  0.1560
 'International Tables Vol C tables 4.2.6.8 and 6.1.1.1'
_computing_data_collection
 'CrysAlisPro 1.171.39.46 (Rigaku OD, 2018)'
_computing_cell_refinement
 'CrysAlisPro 1.171.39.46 (Rigaku OD, 2018)'
_computing_data_reduction
 'CrysAlisPro 1.171.39.46 (Rigaku OD, 2018)'
_computing_structure_solution            'SUPERFLIP (Palatinus & Chapuis, 2007)'
_computing_structure_refinement          'JANA2006 (Petricek et al., 2014)'
loop_
 _atom_site_label
 _atom_site_type_symbol
 _atom_site_fract_x
 _atom_site_fract_y
 _atom_site_fract_z
 _atom_site_adp_type
 _atom_site_U_iso_or_equiv
 _atom_site_site_symmetry_multiplicity
 _atom_site_occupancy
 _atom_site_calc_flag
 _atom_site_refinement_flags
 _atom_site_disorder_assembly
 _atom_site_disorder_group
  X K 0 0 0.2208(3) Uani 0.0195(6) 3 0.79 d . . .
  T Si 0.19182(4) 0.18988(4) 0.001244 Uani 0.0033(3) 18 0.949 d . . .
  Z Al 0.29779(5) 0.26141(5) 0.61167(16) Uani 0.0044(3) 18 0.961 d . . .
  B B 0.10978(12) 0.2196(2) 0.4542(6) Uani 0.0056(12) 9 1 d . . .
  Y Mg 0.12370(7) 0.06185(4) 0.6367(2) Uani 0.0072(4) 9 1.2 d . . .
  O1 O -0.00995(12) 0.18453(12) -0.2211(3) Uani 0.0082(7) 18 1 d . . .
  O2 O -0.00056(12) 0.28494(11) 0.0796(3) Uani 0.0078(7) 18 1 d . . .
  O3 O 0.06084(13) 0.26970(13) 0.4408(4) Uani 0.0097(8) 18 1 d . . .
  O4 O 0.06074(9) -0.06074(9) 0.4876(5) Uani 0.0119(10) 9 1 d . . .
  O5 O 0 0 0.7767(8) Uani 0.0129(14) 3 1 d . . .
  O6 O -0.18650(18) -0.09325(9) 0.0739(4) Uani 0.0102(10) 9 1 d . . .
  O7 O 0.24136(9) 0.48273(19) -0.2384(4) Uani 0.0091(9) 9 1 d . . .
  O8 O 0.20236(11) 0.4047(2) 0.1760(5) Uani 0.0153(11) 9 1 d . . .
loop_
 _atom_site_aniso_label
 _atom_site_aniso_type_symbol
 _atom_site_aniso_U_11
 _atom_site_aniso_U_22
 _atom_site_aniso_U_33
 _atom_site_aniso_U_12
 _atom_site_aniso_U_13
 _atom_site_aniso_U_23
 X K 0.0170(5) 0.0170(5) 0.0246(14) 0.0085(3) 0 0
 T Si 0.0022(3) 0.0016(3) 0.0061(4) 0.0008(2) -0.0009(2) -0.0010(2)
 Z Al 0.0036(3) 0.0039(3) 0.0056(4) 0.0019(3) -0.0002(3) 0.0005(3)
 B B 0.0050(11) 0.0055(15) 0.006(2) 0.0028(8) 0.0007(6) 0.0015(12)
 Y Mg 0.0060(5) 0.0035(3) 0.0128(7) 0.0030(2) -0.0042(4) -0.00210(18)
 O1 O 0.0075(8) 0.0106(8) 0.0067(12) 0.0045(7) 0.0000(6) -0.0006(7)
 O2 O 0.0114(8) 0.0061(8) 0.0074(11) 0.0056(7) 0.0001(6) -0.0010(6)
 O3 O 0.0089(8) 0.0087(9) 0.0144(12) 0.0067(7) 0.0014(6) 0.0022(6)
 O4 O 0.0117(10) 0.0117(10) 0.016(2) 0.0090(11) 0.0007(5) -0.0007(5)
 O5 O 0.0128(14) 0.0128(14) 0.013(3) 0.0064(7) 0 0
 O6 O 0.0135(13) 0.0078(9) 0.0113(17) 0.0068(7) 0.0000(10) 0.0000(5)
 O7 O 0.0072(8) 0.0132(13) 0.0089(17) 0.0066(6) -0.0009(5) -0.0017(9)
 O8 O 0.0139(10) 0.0263(15) 0.0097(18) 0.0131(8) -0.0001(6) -0.0002(11)
loop_
 _geom_bond_atom_site_label_1
 _geom_bond_atom_site_label_2
 _geom_bond_site_symmetry_1
 _geom_bond_site_symmetry_2
 _geom_bond_distance
 _geom_bond_publ_flag
  X T . . 3.421(2) ?
  X T . 2_555 3.4207(17) ?
  X T . 3_555 3.4207(17) ?
  X T . 4_555 3.421(2) ?
  X T . 5_555 3.4207(17) ?
  X T . 6_555 3.4207(17) ?
  X Y . . 3.439(3) ?
  X Y . 2_555 3.439(3) ?
  X Y . 3_555 3.439(3) ?
  X O4 . . 2.544(4) ?
  X O4 . 2_555 2.544(4) ?
  X O4 . 3_555 2.544(4) ?
  X O6 . . 2.777(3) ?
  X O6 . 2_555 2.777(3) ?
  X O6 . 3_555 2.777(3) ?
  X O7 . 7_445 2.690(3) ?
  X O7 . 8_555 2.690(3) ?
  X O7 . 9_455 2.690(3) ?
  T O1 . 5_555 1.601(2) ?
  T O2 . 5_555 1.6030(19) ?
  T O6 . 3_555 1.627(4) ?
  T O7 . 8_555 1.643(4) ?
  Z Z . 8_555 2.9455(17) ?
  Z Z . 15_554 2.9455(17) ?
  Z Y . . 2.9975(19) ?
  B O3 . . 1.368(5) ?
  B O3 . 5_555 1.368(3) ?
  B O4 . 2_555 1.372(4) ?
  Y Y . 2_555 2.9512(18) ?
  Y Y . 3_555 2.951(2) ?
  Y O1 . 3_556 1.980(3) ?
  Y O1 . 5_556 1.980(2) ?
  Y O4 . . 2.000(3) ?
  Y O4 . 2_555 2.000(3) ?
  Y O5 . . 1.978(3) ?
  Y O8 . 8_555 2.113(3) ?
loop_
 _geom_angle_atom_site_label_1
 _geom_angle_atom_site_label_2
 _geom_angle_atom_site_label_3
 _geom_angle_site_symmetry_1
 _geom_angle_site_symmetry_2
 _geom_angle_site_symmetry_3
 _geom_angle
 _geom_angle_publ_flag
  T X T . . 2_555 100.44(5) ?
  T X T . . 3_555 100.44(5) ?
  T X T . . 4_555 125.09(7) ?
  T X T . . 5_555 53.54(3) ?
  T X T . . 6_555 51.82(3) ?
  T X Y . . . 91.02(3) ?
  T X Y . . 2_555 113.85(3) ?
  T X Y . . 3_555 141.19(5) ?
  T X O4 . . . 110.00(4) ?
  T X O4 . . 2_555 81.04(6) ?
  T X O4 . . 3_555 148.79(6) ?
  T X O6 . . . 122.64(9) ?
  T X O6 . . 2_555 79.49(6) ?
  T X O6 . . 3_555 28.07(8) ?
  T X O7 . . 7_445 124.42(9) ?
  T X O7 . . 8_555 28.07(8) ?
  T X O7 . . 9_455 81.51(6) ?
  T X T 2_555 . 3_555 100.44(5) ?
  T X T 2_555 . 4_555 53.54(3) ?
  T X T 2_555 . 5_555 51.82(3) ?
  T X T 2_555 . 6_555 125.09(7) ?
  T X Y 2_555 . . 141.19(5) ?
  T X Y 2_555 . 2_555 91.02(3) ?
  T X Y 2_555 . 3_555 113.85(4) ?
  T X O4 2_555 . . 148.79(6) ?
  T X O4 2_555 . 2_555 110.00(5) ?
  T X O4 2_555 . 3_555 81.04(6) ?
  T X O6 2_555 . . 28.07(4) ?
  T X O6 2_555 . 2_555 122.64(9) ?
  T X O6 2_555 . 3_555 79.49(8) ?
  T X O7 2_555 . 7_445 81.51(7) ?
  T X O7 2_555 . 8_555 124.42(10) ?
  T X O7 2_555 . 9_455 28.07(4) ?
  T X T 3_555 . 4_555 51.82(3) ?
  T X T 3_555 . 5_555 125.09(7) ?
  T X T 3_555 . 6_555 53.54(3) ?
  T X Y 3_555 . . 113.85(3) ?
  T X Y 3_555 . 2_555 141.19(5) ?
  T X Y 3_555 . 3_555 91.02(3) ?
  T X O4 3_555 . . 81.04(6) ?
  T X O4 3_555 . 2_555 148.79(7) ?
  T X O4 3_555 . 3_555 110.00(4) ?
  T X O6 3_555 . . 79.49(6) ?
  T X O6 3_555 . 2_555 28.07(4) ?
  T X O6 3_555 . 3_555 122.64(10) ?
  T X O7 3_555 . 7_445 28.07(5) ?
  T X O7 3_555 . 8_555 81.51(8) ?
  T X O7 3_555 . 9_455 124.42(9) ?
  T X T 4_555 . 5_555 100.44(5) ?
  T X T 4_555 . 6_555 100.44(5) ?
  T X Y 4_555 . . 141.19(5) ?
  T X Y 4_555 . 2_555 113.85(3) ?
  T X Y 4_555 . 3_555 91.02(3) ?
  T X O4 4_555 . . 110.00(4) ?
  T X O4 4_555 . 2_555 148.79(6) ?
  T X O4 4_555 . 3_555 81.04(6) ?
  T X O6 4_555 . . 28.07(5) ?
  T X O6 4_555 . 2_555 79.49(5) ?
  T X O6 4_555 . 3_555 122.64(9) ?
  T X O7 4_555 . 7_445 28.07(6) ?
  T X O7 4_555 . 8_555 124.42(10) ?
  T X O7 4_555 . 9_455 81.51(6) ?
  T X T 5_555 . 6_555 100.44(5) ?
  T X Y 5_555 . . 113.85(3) ?
  T X Y 5_555 . 2_555 91.02(3) ?
  T X Y 5_555 . 3_555 141.19(5) ?
  T X O4 5_555 . . 148.79(6) ?
  T X O4 5_555 . 2_555 81.04(6) ?
  T X O4 5_555 . 3_555 110.00(5) ?
  T X O6 5_555 . . 79.49(6) ?
  T X O6 5_555 . 2_555 122.64(9) ?
  T X O6 5_555 . 3_555 28.07(7) ?
  T X O7 5_555 . 7_445 124.42(10) ?
  T X O7 5_555 . 8_555 81.51(9) ?
  T X O7 5_555 . 9_455 28.07(5) ?
  T X Y 6_555 . . 91.02(3) ?
  T X Y 6_555 . 2_555 141.19(5) ?
  T X Y 6_555 . 3_555 113.85(4) ?
  T X O4 6_555 . . 81.04(6) ?
  T X O4 6_555 . 2_555 110.00(4) ?
  T X O4 6_555 . 3_555 148.79(7) ?
  T X O6 6_555 . . 122.64(9) ?
  T X O6 6_555 . 2_555 28.07(5) ?
  T X O6 6_555 . 3_555 79.49(8) ?
  T X O7 6_555 . 7_445 81.51(6) ?
  T X O7 6_555 . 8_555 28.07(8) ?
  T X O7 6_555 . 9_455 124.42(10) ?
  Y X Y . . 2_555 50.81(4) ?
  Y X Y . . 3_555 50.81(4) ?
  Y X O4 . . . 35.19(5) ?
  Y X O4 . . 2_555 35.19(6) ?
  Y X O4 . . 3_555 70.83(9) ?
  Y X O6 . . . 142.02(9) ?
  Y X O6 . . 2_555 95.79(7) ?
  Y X O6 . . 3_555 95.79(7) ?
  Y X O7 . . 7_445 121.68(8) ?
  Y X O7 . . 8_555 79.94(7) ?
  Y X O7 . . 9_455 121.68(8) ?
  Y X Y 2_555 . 3_555 50.81(5) ?
  Y X O4 2_555 . . 70.83(9) ?
  Y X O4 2_555 . 2_555 35.19(5) ?
  Y X O4 2_555 . 3_555 35.19(5) ?
  Y X O6 2_555 . . 95.79(7) ?
  Y X O6 2_555 . 2_555 142.02(9) ?
  Y X O6 2_555 . 3_555 95.79(8) ?
  Y X O7 2_555 . 7_445 121.68(8) ?
  Y X O7 2_555 . 8_555 121.68(8) ?
  Y X O7 2_555 . 9_455 79.94(8) ?
  Y X O4 3_555 . . 35.19(6) ?
  Y X O4 3_555 . 2_555 70.83(9) ?
  Y X O4 3_555 . 3_555 35.19(7) ?
  Y X O6 3_555 . . 95.79(7) ?
  Y X O6 3_555 . 2_555 95.79(7) ?
  Y X O6 3_555 . 3_555 142.02(9) ?
  Y X O7 3_555 . 7_445 79.94(7) ?
  Y X O7 3_555 . 8_555 121.68(9) ?
  Y X O7 3_555 . 9_455 121.68(8) ?
  O4 X O4 . . 2_555 69.45(10) ?
  O4 X O4 . . 3_555 69.45(10) ?
  O4 X O6 . . . 126.18(7) ?
  O4 X O6 . . 2_555 71.20(9) ?
  O4 X O6 . . 3_555 126.18(8) ?
  O4 X O7 . . 7_445 86.75(8) ?
  O4 X O7 . . 8_555 86.75(9) ?
  O4 X O7 . . 9_455 150.77(12) ?
  O4 X O4 2_555 . 3_555 69.45(9) ?
  O4 X O6 2_555 . . 126.18(8) ?
  O4 X O6 2_555 . 2_555 126.18(7) ?
  O4 X O6 2_555 . 3_555 71.20(9) ?
  O4 X O7 2_555 . 7_445 150.77(12) ?
  O4 X O7 2_555 . 8_555 86.75(8) ?
  O4 X O7 2_555 . 9_455 86.75(8) ?
  O4 X O6 3_555 . . 71.20(9) ?
  O4 X O6 3_555 . 2_555 126.18(8) ?
  O4 X O6 3_555 . 3_555 126.18(9) ?
  O4 X O7 3_555 . 7_445 86.75(7) ?
  O4 X O7 3_555 . 8_555 150.77(12) ?
  O4 X O7 3_555 . 9_455 86.75(9) ?
  O6 X O6 . . 2_555 106.47(9) ?
  O6 X O6 . . 3_555 106.47(9) ?
  O6 X O7 . . 7_445 55.72(7) ?
  O6 X O7 . . 8_555 138.04(13) ?
  O6 X O7 . . 9_455 55.72(6) ?
  O6 X O6 2_555 . 3_555 106.47(10) ?
  O6 X O7 2_555 . 7_445 55.72(6) ?
  O6 X O7 2_555 . 8_555 55.72(9) ?
  O6 X O7 2_555 . 9_455 138.04(13) ?
  O6 X O7 3_555 . 7_445 138.04(13) ?
  O6 X O7 3_555 . 8_555 55.72(11) ?
  O6 X O7 3_555 . 9_455 55.72(9) ?
  O7 X O7 7_445 . 8_555 109.31(10) ?
  O7 X O7 7_445 . 9_455 109.31(9) ?
  O7 X O7 8_555 . 9_455 109.31(11) ?
  X T O1 . . 5_555 116.65(7) ?
  X T O2 . . 5_555 131.98(9) ?
  X T O6 . . 3_555 53.40(10) ?
  X T O7 . . 8_555 50.40(10) ?
  O1 T O2 5_555 . 5_555 111.31(10) ?
  O1 T O6 5_555 . 3_555 111.64(15) ?
  O1 T O7 5_555 . 8_555 110.47(14) ?
  O2 T O6 5_555 . 3_555 110.14(14) ?
  O2 T O7 5_555 . 8_555 110.16(13) ?
  O6 T O7 3_555 . 8_555 102.81(15) ?
  Z Z Z 8_555 . 15_554 119.41(4) ?
  Z Z Y 8_555 . . 121.94(5) ?
  Z Z Y 15_554 . . 113.17(4) ?
  O3 B O3 . . 5_555 118.7(3) ?
  O3 B O4 . . 2_555 120.61(16) ?
  O3 B O4 5_555 . 2_555 120.6(3) ?
  X Y Z . . . 110.13(5) ?
  X Y Z . . 6_555 110.13(5) ?
  X Y Y . . 2_555 64.59(4) ?
  X Y Y . . 3_555 64.59(4) ?
  X Y O1 . . 3_556 133.77(8) ?
  X Y O1 . . 5_556 133.77(9) ?
  X Y O4 . . . 47.14(9) ?
  X Y O4 . . 2_555 47.14(9) ?
  X Y O5 . . . 90.84(15) ?
  X Y O8 . . 8_555 94.03(11) ?
  Z Y Z . . 6_555 73.32(4) ?
  Z Y Y . . 2_555 113.22(4) ?
  Z Y Y . . 3_555 172.44(6) ?
  Z Y O1 . . 3_556 93.20(6) ?
  Z Y O1 . . 5_556 38.59(7) ?
  Z Y O4 . . . 138.35(10) ?
  Z Y O4 . . 2_555 83.23(5) ?
  Z Y O5 . . . 136.02(9) ?
  Z Y O8 . . 8_555 41.66(11) ?
  Z Y Y 6_555 . 2_555 172.44(4) ?
  Z Y Y 6_555 . 3_555 113.22(4) ?
  Z Y O1 6_555 . 3_556 38.59(8) ?
  Z Y O1 6_555 . 5_556 93.20(10) ?
  Z Y O4 6_555 . . 83.23(6) ?
  Z Y O4 6_555 . 2_555 138.35(10) ?
  Z Y O5 6_555 . . 136.02(9) ?
  Z Y O8 6_555 . 8_555 41.66(12) ?
  Y Y Y 2_555 . 3_555 60.00(4) ?
  Y Y O1 2_555 . 3_556 140.99(9) ?
  Y Y O1 2_555 . 5_556 94.35(10) ?
  Y Y O4 2_555 . . 89.24(6) ?
  Y Y O4 2_555 . 2_555 42.46(8) ?
  Y Y O5 2_555 . . 41.76(10) ?
  Y Y O8 2_555 . 8_555 141.31(13) ?
  Y Y O1 3_555 . 3_556 94.35(6) ?
  Y Y O1 3_555 . 5_556 140.99(10) ?
  Y Y O4 3_555 . . 42.46(8) ?
  Y Y O4 3_555 . 2_555 89.24(6) ?
  Y Y O5 3_555 . . 41.76(10) ?
  Y Y O8 3_555 . 8_555 141.31(12) ?
  O1 Y O1 3_556 . 5_556 89.05(11) ?
  O1 Y O4 3_556 . . 88.95(9) ?
  O1 Y O4 3_556 . 2_555 176.19(8) ?
  O1 Y O5 3_556 . . 99.34(13) ?
  O1 Y O8 3_556 . 8_555 77.26(14) ?
  O1 Y O4 5_556 . . 176.20(12) ?
  O1 Y O4 5_556 . 2_555 88.95(11) ?
  O1 Y O5 5_556 . . 99.34(14) ?
  O1 Y O8 5_556 . 8_555 77.26(12) ?
  O4 Y O4 . . 2_555 92.86(11) ?
  O4 Y O5 . . . 84.19(12) ?
  O4 Y O8 . . 8_555 99.14(13) ?
  O4 Y O5 2_555 . . 84.19(13) ?
  O4 Y O8 2_555 . 8_555 99.14(14) ?
  O5 Y O8 . . 8_555 175.13(19) ?
  T O1 Y 5_555 . 2_554 123.34(12) ?
  X O4 B . . 3_555 121.1(3) ?
  X O4 Y . . . 97.67(8) ?
  X O4 Y . . 3_555 97.67(8) ?
  B O4 Y 3_555 . . 119.87(18) ?
  B O4 Y 3_555 . 3_555 119.87(17) ?
  Y O4 Y . . 3_555 95.09(14) ?
  Y O5 Y . . 2_555 96.5(2) ?
  Y O5 Y . . 3_555 96.5(2) ?
  Y O5 Y 2_555 . 3_555 96.5(2) ?
  X O6 T . . 2_555 98.53(7) ?
  X O6 T . . 4_555 98.53(13) ?
  T O6 T 2_555 . 4_555 142.4(2) ?
  X O7 T 13_554 . 15_554 101.53(7) ?
  X O7 T 13_554 . 16_554 101.53(14) ?
  T O7 T 15_554 . 16_554 131.0(2) ?
loop_
 _refln_index_h
 _refln_index_k
 _refln_index_l
 _refln_F_squared_calc
 _refln_F_squared_meas
 _refln_F_squared_sigma
 _refln_observed_status
   0   3   0  8250.06  7535.83   198.46 o
  -3   3   0  8251.84  7267.19   197.69 o
  -4   5   0  8217.30  8146.44   162.84 o
  -3   6   0  1256.58  1506.46    66.44 o
  -5   7   0   931.49  1012.89    55.82 o
  -4   8   0 11515.80 11693.00   236.92 o
  -1   8   0  1442.71  1425.47    51.74 o
  -7   8   0  1452.78  1518.47    52.57 o
  -3   9   0   554.44   645.58    33.88 o
  -6   9   0   545.41   684.64    49.65 o
   0   9   0 24826.50 24106.70   650.47 o
  -8  10   0 10072.40 10546.20   227.90 o
  -4  11   0 17620.60 17790.70   508.96 o
  -7  11   0 17631.90 17408.40   352.42 o
  -1  11   0 44946.20 44199.80   814.88 o
  -6  12   0 35665.60 31931.90   858.37 o
  -3  12   0 17646.60 16766.80   491.21 o
   0  12   0  4913.16  4892.47   192.74 o
 -12  12   0  4879.83  5124.61   192.51 o
  -5  13   0  4162.00  4062.55   174.98 o
  -8  13   0  4147.30  4483.70   128.38 o
  -2  13   0  3177.35  3162.26   144.19 o
 -11  13   0  3195.46  3128.19   144.80 o
  -7  14   0  1068.69   846.48    48.40 o
  -4  14   0   993.66  1098.76    80.92 o
 -10  14   0   993.26  1077.85    77.91 o
  -1  14   0   563.34   574.79    56.61 o
 -13  14   0   564.86   448.59    51.00 o
  -6  15   0  4627.28  5020.31   201.99 o
  -9  15   0  4643.76  4213.34   194.12 o
  -3  15   0  1197.53  1205.77    87.86 o
 -12  15   0  1192.85  1165.48    86.85 o
   0  15   0 21859.90 20941.60   624.39 o
  -8  16   0  4083.43  4317.60   193.19 o
  -5  16   0  5121.72  5379.78   159.88 o
 -11  16   0  5101.99  5230.72   157.24 o
  -2  16   0   918.86   851.82    76.87 o
 -14  16   0   916.83   700.21    70.50 o
  -7  17   0   298.74   269.73    31.51 o
 -10  17   0   294.44   346.34    35.15 o
  -4  17   0  1413.84  1500.20   105.55 o
 -13  17   0  1412.88  1273.52   101.51 o
  -1  17   0 10882.00 10864.30   381.50 o
  -9  18   0  1126.61  1024.66    92.67 o
  -6  18   0   221.33   186.45    27.03 o
 -12  18   0   212.38   118.89    23.75 o
  -3  18   0  4474.14  4751.30   219.98 o
 -15  18   0  4469.87  4468.08   211.09 o
  -8  19   0  3949.04  3938.18   197.42 o
 -11  19   0  3949.63  3784.78   137.93 o
  -5  19   0   793.79   791.75    81.29 o
 -14  19   0   787.74   912.77    83.17 o
  -2  19   0   383.70   213.03    50.11 o
 -17  19   0   379.20   397.86    56.28 o
 -10  20   0 10595.90 11144.40   290.83 o
  -7  20   0  2932.67  2783.89   166.75 o
 -13  20   0  2932.47  2928.35   122.24 o
  -4  20   0  2992.42  2864.03   172.95 o
  -2   3   1 14372.10 12549.40   325.70 o
  -4   4   1  1675.35  2212.19    77.65 o
  -3   5   1  5340.03  5107.22   109.52 o
  -5   6   1 16997.50 16996.70   319.89 o
  -2   6   1  3175.10  3107.20   111.85 o
  -4   7   1 16051.70 16643.50   450.12 o
  -3   7  -1 16161.50 16911.20   458.60 o
  -2   8  -1 13035.20 13168.30   374.11 o
  -3   8   1  2000.31  2264.74    68.57 o
  -5   8  -1  2001.70  2302.96    68.52 o
  -8   9   1  6473.80  6413.67   211.00 o
  -1   9  -1  6438.33  6833.37   224.90 o
  -5   9   1  1912.32  2103.64    95.89 o
  -7  10   1  3309.31  3498.74   137.76 o
  -3  10  -1  3301.53  3367.25   138.00 o
  -4  10   1 10213.10 10350.00   225.16 o
  -6  10  -1 10286.00 10539.60   225.39 o
  -9  10  -1  5684.52  6245.41   214.07 o
  -9  11   1  2069.95  2140.21    74.40 o
  -6  11   1 20899.50 19706.50   391.67 o
  -3  11   1  4839.54  5200.37   187.88 o
  -8  11  -1  4808.44  4628.15   181.98 o
 -11  12   1 16862.90 16279.80   337.11 o
  -1  12  -1 16922.50 15563.50   467.44 o
  -8  12   1  6493.85  6472.87   162.45 o
  -4  12  -1  6475.76  6607.97   162.89 o
  -5  12   1  5991.13  6072.26   156.32 o
  -7  12  -1  5924.37  6210.13   222.78 o
   0  13  -1  3612.62  4075.80   170.38 o
 -10  13   1  8940.39  9403.62   220.54 o
  -3  13  -1  8938.15  9498.44   316.17 o
  -7  13   1  1703.82  1662.56    99.26 o
  -6  13  -1  1690.88  1710.90    69.85 o
  -4  13   1  2624.10  2631.09    92.39 o
  -9  13  -1  2636.23  2673.89   130.80 o
  -1  13   1     1.55    -0.42     3.12 <
 -12  13  -1     2.25     0.20     1.01 <
 -12  14   1  7836.85  8221.60   286.53 o
  -2  14  -1  7794.96  8012.03   197.27 o
  -9  14   1  5105.83  5506.37   211.81 o
  -5  14  -1  5076.09  5196.66   146.42 o
  -6  14   1  1878.87  1829.75   110.44 o
  -8  14  -1  1903.03  1918.20    77.25 o
  -3  14   1  5545.28  5507.05   218.40 o
 -11  14  -1  5534.11  5604.94   218.40 o
 -14  15   1  1337.06  1415.19    93.73 o
  -1  15  -1  1350.85  1269.61    62.91 o
 -11  15   1  8558.00  9480.16   324.66 o
  -8  15   1  1349.61  1240.00    89.34 o
  -7  15  -1  1360.95  1411.58    67.71 o
  -5  15   1 12055.50 11445.10   385.03 o
 -10  15  -1 12109.50 12526.30   407.13 o
  -2  15   1  4969.77  5283.06   216.38 o
 -13  15  -1  4944.91  4886.16   210.96 o
 -16  16   1   503.96   453.72    54.19 o
   0  16  -1   525.53   470.43    56.38 o
 -13  16   1  6106.09  6310.38   176.73 o
  -3  16  -1  6095.55  6238.34   178.04 o
  -6  16  -1  7517.82  8020.29   296.71 o
  -7  16   1  8177.59  8511.65   219.90 o
  -9  16  -1  8205.43  8582.83   219.60 o
  -4  16   1  8257.61  8852.85   315.80 o
 -12  16  -1  8314.57  8320.35   310.30 o
 -15  17   1   238.41   262.35    42.19 o
  -2  17  -1   234.38   201.37    27.09 o
 -12  17   1  1470.13  1480.70   102.30 o
  -5  17  -1  1451.22  1465.11    74.09 o
  -9  17   1  6129.34  6189.50   177.06 o
  -8  17  -1  6108.11  6039.92   178.01 o
  -6  17   1  9071.85  8624.82   327.77 o
 -11  17  -1  9126.37  9249.08   238.07 o
  -3  17   1  3167.99  3300.52   170.06 o
 -14  17  -1  3191.19  2985.29   163.28 o
 -17  18   1  1334.16  1340.39   102.54 o
  -1  18  -1  1330.47  1293.96   101.62 o
 -14  18   1  1671.97  1644.72   116.06 o
  -4  18  -1  1680.29  1616.85    81.92 o
 -11  18   1  3405.81  3594.76   128.87 o
  -7  18  -1  3428.39  3522.66   128.50 o
  -8  18   1  3115.71  2993.36   116.41 o
 -10  18  -1  3093.95  3185.58   171.14 o
  -5  18   1   870.28   862.02    80.89 o
 -13  18  -1   869.11   752.65    80.98 o
  -2  18   1  3254.47  2887.42   169.06 o
   0  19  -1  4119.71  3951.58   206.20 o
 -16  19   1   380.83   329.32    50.71 o
  -3  19  -1   370.50   337.30    55.42 o
 -13  19   1  4454.85  4120.30   144.89 o
  -6  19  -1  4422.74  4279.43   147.96 o
 -10  19   1   837.02   845.41    59.87 o
  -9  19  -1   825.93   805.34    58.58 o
  -7  19   1  1165.11   999.07    68.24 o
 -12  19  -1  1162.01  1249.59    71.52 o
  -4  19   1  3509.63  3532.19   196.80 o
 -18  20   1  3237.72  3192.51   174.45 o
  -2  20  -1  3232.98  3073.73   179.86 o
 -15  20   1  4618.00  4579.57   226.48 o
  -5  20  -1  4624.87  4874.17   164.32 o
 -12  20   1  2031.34  1966.80   140.76 o
  -8  20  -1  2007.30  2199.43   102.92 o
  -9  20   1  1162.83  1002.61    95.57 o
 -11  20  -1  1182.60  1113.81    72.46 o
  -6  20   1  3500.92  3449.15   189.87 o
 -14  20  -1  3530.22  3113.49   184.89 o
  -2   2   2  1135.05  1003.67    39.14 o
  -3   4   2  4996.36  4983.04   142.62 o
  -1   4  -2  5046.12  4876.64   134.92 o
  -5   5   2 21645.40 19050.40   525.75 o
   0   5  -2 21736.40 21230.60   526.53 o
  -2   5   2 11613.70 12672.70   327.41 o
  -3   5  -2 11529.20 11689.70   323.43 o
  -4   6   2  8038.59  8885.42   173.05 o
  -2   6  -2  8004.49  8702.83   171.32 o
  -6   7   2  2455.82  2413.15    89.41 o
  -1   7  -2  2472.20  2557.73    98.92 o
  -4   7  -2 49149.00 47537.70  1207.45 o
  -8   8   2  3237.88  3281.38   122.86 o
   0   8  -2  3209.85  3408.08   122.86 o
  -5   8   2  1280.06  1211.35    65.57 o
  -3   8  -2  1287.48  1283.85    43.67 o
  -6   8  -2  7566.23  7736.50   242.85 o
  -2   9  -2 15375.40 15455.30   243.35 o
  -5   9  -2  9452.14  9663.17   296.38 o
  -9  10   2  1977.56  1971.15    67.71 o
  -1  10  -2  1968.68  1992.65    55.15 o
  -6  10   2 14932.40 14190.00   407.12 o
  -4  10  -2 14947.90 13917.50   403.51 o
  -3  10   2  1049.92  1179.70    72.99 o
  -7  10  -2  1051.12  1174.51    71.99 o
 -11  11   2   237.04   198.62    20.00 o
   0  11  -2   237.20   195.04    20.52 o
  -8  11   2 11405.80 10143.00   315.86 o
  -3  11  -2 11430.80 10912.10   232.24 o
  -5  11   2 11183.80 10661.10   332.36 o
  -6  11  -2 11216.50 10983.60   340.89 o
  -9  11  -2   817.56   903.67    66.02 o
 -10  12   2  3632.54  3550.53   106.66 o
  -2  12  -2  3590.65  3577.54    85.05 o
  -7  12   2  4562.18  4701.80   130.12 o
  -5  12  -2  4532.83  4625.93   128.12 o
  -4  12   2 10277.90  9837.04   322.08 o
 -12  13   2  4464.78  4513.59   104.00 o
  -1  13  -2  4454.31  4484.83    90.92 o
  -9  13   2  4459.94  4579.95   184.32 o
  -4  13  -2  4430.75  4442.02   178.82 o
  -6  13   2   532.42   412.14    34.33 o
  -7  13  -2   532.43   540.15    36.12 o
 -10  13  -2  1941.01  1942.40   111.03 o
 -14  14   2  3382.88  3360.59   151.59 o
   0  14  -2  3393.30  3369.86   113.08 o
 -11  14   2  1525.53  1767.08   104.35 o
  -3  14  -2  1506.36  1584.81    87.39 o
  -8  14   2 12621.30 12031.60   274.94 o
  -6  14  -2 12711.80 12211.00   274.03 o
  -5  14   2  4837.06  4698.89   199.09 o
  -9  14  -2  4817.34  4939.44   200.20 o
 -13  15   2  1921.13  1852.39   110.20 o
  -2  15  -2  1932.33  1932.73    64.79 o
 -10  15   2  2821.34  3049.24   104.04 o
  -5  15  -2  2821.15  2768.57   103.28 o
  -7  15   2  4300.45  4039.45   132.05 o
  -8  15  -2  4302.20  4432.98   187.71 o
  -4  15   2  6144.30  6181.09   248.23 o
 -11  15  -2  6148.73  6435.97   246.68 o
 -15  16   2  2409.64  2472.40    92.26 o
  -1  16  -2  2428.31  2221.89    75.80 o
 -12  16   2  5996.47  6390.92   244.49 o
  -4  16  -2  6006.52  6119.45   136.65 o
  -9  16   2  2501.92  2516.15   137.69 o
  -7  16  -2  2493.31  2635.06   100.04 o
  -6  16   2  7597.07  7901.64   299.19 o
  -3  16   2 10915.40 11298.90   391.04 o
 -13  16  -2 10907.40 11338.10   391.56 o
 -17  17   2   287.89   235.09    39.83 o
   0  17  -2   291.90   225.61    40.78 o
 -14  17   2  3293.21  3331.23   169.49 o
  -3  17  -2  3324.91  3127.96    91.84 o
 -11  17   2   992.30  1105.41    61.93 o
  -6  17  -2   997.01   955.36    60.07 o
  -8  17   2  2896.12  2803.07   158.42 o
  -9  17  -2  2886.18  3014.71   112.29 o
  -5  17   2   742.83   742.54    75.77 o
 -12  17  -2   730.90   845.77    79.08 o
 -16  18   2  4128.64  3605.03   181.53 o
  -2  18  -2  4150.07  4134.29   112.68 o
 -13  18   2  4105.30  4219.67   142.32 o
  -5  18  -2  4140.95  4190.96   143.58 o
 -10  18   2   937.40   942.97    59.88 o
  -8  18  -2   927.00   943.04    60.61 o
  -7  18   2  2276.42  2245.20   142.35 o
 -11  18  -2  2274.83  2365.63   146.83 o
  -4  18   2   827.92   734.38    81.63 o
 -14  18  -2   821.26   846.66    83.64 o
 -18  19   2  1469.53  1432.80   104.80 o
  -1  19  -2  1451.05  1444.44    76.77 o
 -15  19   2   505.77   468.00    43.10 o
  -4  19  -2   498.09   466.81    44.33 o
 -12  19   2  2250.75  2272.11   102.25 o
  -7  19  -2  2245.06  2387.85   104.25 o
  -9  19   2  1102.71   991.79    66.33 o
 -10  19  -2  1108.51  1110.02    96.45 o
  -6  19   2  4767.06  4916.47   240.01 o
   0  20  -2  4436.44  4425.69   218.92 o
 -17  20   2   486.91   515.60    60.16 o
  -3  20  -2   483.25   484.52    62.30 o
 -14  20   2  1946.51  2100.09    97.69 o
  -6  20  -2  1945.18  1738.14    94.50 o
 -11  20   2  1215.45  1197.38    73.56 o
  -9  20  -2  1221.37  1303.13    75.31 o
  -8  20   2  2983.28  3022.80   181.27 o
 -12  20  -2  2960.79  3362.73   188.09 o
  -2  21  -2   766.96   844.55    86.78 o
  -8  21  -2  2020.49  1992.53   136.59 o
  -4   5   3   644.84   645.56    20.48 o
  -6   6   3 21410.50 21201.00   560.22 o
  -3   6   3  8963.67  8693.73   234.46 o
  -5   7   3   702.85   647.01    44.05 o
  -2   7  -3   705.62   686.04    44.71 o
  -7   8   3  3732.32  3815.06    97.51 o
  -1   8  -3  3716.28  3762.19    77.43 o
  -4   8  -3   467.33   475.61    25.02 o
  -9   9   3  7315.33  7488.68   167.46 o
  -6   9   3 14219.20 14531.40   287.87 o
  -3   9  -3 14247.50 14805.60   398.83 o
  -6   9  -3  4238.00  4213.67   129.77 o
  -8  10   3  1382.62  1357.20    51.35 o
  -2  10  -3  1365.73  1369.42    36.20 o
  -5  10   3 15041.20 14999.90   441.62 o
  -5  10  -3 15040.50 15227.20   299.46 o
 -10  11   3 27273.60 27335.50   696.97 o
  -1  11  -3 27137.30 25617.60   341.53 o
  -7  11   3  3502.10  3337.65   148.81 o
  -4  11  -3  3469.63  3614.62    97.60 o
  -4  11   3  2734.78  2762.29   129.51 o
  -7  11  -3  2716.48  2708.65   126.42 o
 -12  12   3  2031.86  2007.53    99.92 o
   0  12  -3  2058.36  2037.08    74.06 o
  -9  12   3 11188.90 11076.10   242.79 o
  -3  12  -3 11183.00 11132.80   242.00 o
  -6  12   3   348.71   281.80    37.74 o
  -6  12  -3   337.62   338.85    24.50 o
 -11  13   3  1402.04  1496.11    88.77 o
  -2  13  -3  1415.06  1406.53    59.07 o
  -8  13   3   823.51   724.47    63.45 o
  -5  13   3  4883.23  4724.55   195.46 o
  -8  13  -3  4867.51  4767.92   193.57 o
 -13  14   3   731.60   742.35    42.57 o
  -1  14  -3   721.17   719.68    31.14 o
 -10  14   3     1.74     0.58     2.69 <
  -4  14  -3     1.60     0.58     1.49 <
  -4  14   3  1910.31  1903.71   116.83 o
 -10  14  -3  1923.94  1973.88   117.29 o
 -15  15   3  7311.11  7576.94   193.85 o
   0  15  -3  7257.45  7473.20   193.94 o
 -12  15   3  5984.68  6085.03   166.28 o
  -3  15  -3  5993.45  5946.07   113.38 o
  -9  15   3 11044.90 10825.30   259.54 o
  -6  15  -3 11056.40 11172.10   205.70 o
  -9  15  -3  8419.47  8922.09   316.21 o
 -14  16   3  1417.15  1379.27    53.79 o
  -2  16  -3  1415.11  1354.22    47.57 o
 -11  16   3  1302.01  1262.74    94.03 o
  -5  16  -3  1300.28  1280.29    97.14 o
  -8  16   3  5599.19  5999.00   247.12 o
  -8  16  -3  5626.47  6064.35   247.08 o
  -5  16   3  8117.30  8198.74   310.39 o
 -16  17   3  3810.63  3761.71   125.74 o
  -1  17  -3  3806.04  3637.41   102.41 o
 -13  17   3  2117.62  1976.82    88.43 o
  -4  17  -3  2141.49  2093.22    91.41 o
 -10  17   3  2461.21  2460.54    99.54 o
  -7  17  -3  2481.21  2356.24    98.53 o
 -10  17  -3  4155.23  3877.65   189.43 o
 -18  18   3  3360.44  3453.53   169.46 o
   0  18  -3  3361.94  3477.20   172.13 o
 -15  18   3  1466.45  1411.70    74.60 o
  -3  18  -3  1477.87  1504.17    60.62 o
 -12  18   3  6857.53  7274.11   198.58 o
  -6  18  -3  6836.02  6220.01   189.49 o
  -9  18   3  7632.40  7751.23   303.81 o
  -9  18  -3  7609.86  7196.27   300.90 o
 -12  18  -3  1489.99  1616.13   116.62 o
 -17  19   3  4931.18  5124.66   226.17 o
  -2  19  -3  4923.34  4852.51   127.17 o
 -14  19   3   569.48   580.13    47.63 o
  -5  19  -3   582.24   511.28    34.77 o
 -11  19   3  2143.90  2048.27    98.01 o
  -8  19  -3  2142.90  2227.83   100.26 o
  -8  19   3   470.36   480.38    68.00 o
 -11  19  -3   473.10   417.37    61.42 o
 -19  20   3  2026.86  2112.18   133.59 o
  -1  20  -3  2021.74  2010.81    93.72 o
 -16  20   3   561.76   564.59    69.43 o
  -4  20  -3   553.45   540.99    44.65 o
 -13  20   3   965.33  1032.64    68.75 o
  -7  20  -3   965.33   973.69    67.02 o
  -3  21  -3  2346.34  2420.04   139.95 o
 -15  21   3  6465.04  6081.84   271.66 o
  -6  21  -3  6425.37  5788.23   264.43 o
  -2  22  -3   796.63   775.97    80.18 o
  -4   4   4 15131.00 15172.40   406.86 o
  -3   5   4  5363.16  5320.12   155.12 o
  -2   6   4 11484.70 11863.80   304.95 o
  -7   7   4  6697.63  6712.62   211.96 o
  -6   8   4  5785.37  5386.38   123.44 o
  -2   8  -4  5798.32  5800.37   130.50 o
  -5   8  -4 11147.00 10923.20   287.17 o
  -8   9   4  3483.99  3462.21    75.37 o
  -1   9  -4  3496.65  3423.61    94.71 o
  -5   9   4 12644.50 12309.70   298.64 o
  -4   9  -4 12586.10 12248.90   233.58 o
  -7   9  -4  2519.57  2280.63    71.07 o
 -10  10   4 24709.20 24202.20   449.10 o
   0  10  -4 24622.10 25563.10   645.13 o
  -7  10   4  1896.00  1899.03    51.93 o
  -3  10  -4  1920.96  1920.28    61.70 o
  -6  10  -4  3399.00  3580.30   103.55 o
  -9  10  -4  4162.47  3822.59   109.90 o
  -9  11   4  1213.45  1283.49    41.60 o
  -2  11  -4  1224.24  1205.42    52.14 o
  -6  11   4  6272.68  6283.21   226.85 o
  -5  11  -4  6257.18  6137.12   145.99 o
  -8  11  -4  2684.07  2673.99    60.26 o
 -11  12   4  4137.53  4281.51    96.40 o
  -1  12  -4  4126.61  4185.01   117.00 o
  -8  12   4  1248.62  1156.53    41.34 o
  -4  12  -4  1260.62  1145.21    50.67 o
  -5  12   4  1513.51  1651.96    99.04 o
 -13  13   4    23.02     7.32     4.55 <
   0  13  -4    20.96    17.39     6.89 <
 -10  13   4   196.84   180.00    16.17 o
  -3  13  -4   196.91   213.06    16.89 o
  -7  13   4  7815.45  7762.85   277.69 o
  -6  13  -4  7833.42  7957.80   276.31 o
 -12  14   4  3283.35  3360.64    86.68 o
  -2  14  -4  3285.38  3556.69   151.87 o
  -9  14   4  1763.06  1879.26    76.85 o
  -5  14  -4  1765.17  1721.85    80.76 o
  -8  14  -4 10380.20  9946.61   277.81 o
 -14  15   4  2865.77  2843.22    79.33 o
  -1  15  -4  2875.25  2877.57    99.79 o
 -11  15   4  7857.60  8140.79   205.70 o
  -4  15  -4  7822.12  8164.44   201.28 o
  -7  15  -4  2847.42  2825.04    92.96 o
 -16  16   4 10759.40 10600.80   254.24 o
   0  16  -4 10741.40 10694.80   255.79 o
 -13  16   4  1369.43  1340.17    53.50 o
  -3  16  -4  1363.20  1464.83    53.60 o
 -10  16   4 17004.50 17691.30   543.76 o
  -6  16  -4 16921.10 16713.20   337.62 o
  -7  16   4  5397.64  5470.27   234.97 o
  -9  16  -4  5413.04  5448.38   145.88 o
 -15  17   4  2147.88  2079.07    69.71 o
  -2  17  -4  2153.86  2080.76    61.05 o
 -12  17   4  2131.06  2180.60    92.84 o
  -5  17  -4  2116.48  2204.60    79.10 o
  -9  17   4  1794.29  1851.54   125.34 o
 -17  18   4  1959.48  2043.58    72.14 o
  -1  18  -4  1959.37  2180.66    65.51 o
 -14  18   4  1890.67  1925.47    89.12 o
  -4  18  -4  1917.27  1962.78    79.96 o
 -11  18   4   685.78   710.18    52.75 o
  -7  18  -4   686.02   761.61    47.12 o
  -8  18   4  1009.00   972.66    92.27 o
 -10  18  -4  1009.38  1081.09    92.88 o
 -19  19   4  3483.83  3623.35   171.79 o
   0  19  -4  3482.32  3380.24   127.89 o
 -16  19   4   199.21   166.99    25.93 o
  -3  19  -4   200.62   177.88    19.97 o
 -13  19   4    22.68     6.46     2.84 <
  -6  19  -4    23.49    22.57    10.50 <
 -10  19   4   153.06   186.41    37.93 o
  -9  19  -4   154.07   173.15    36.59 o
 -18  20   4   251.78   259.39    40.44 o
  -2  20  -4   251.73   254.59    28.30 o
 -15  20   4  6424.81  6600.17   272.45 o
  -5  20  -4  6437.28  6273.65   179.38 o
 -12  20   4   191.90   165.37    38.28 o
  -1  21  -4  4286.02  4380.12   207.01 o
 -17  21   4  1694.97  1656.10   121.85 o
  -4  21  -4  1688.07  1639.99    80.97 o
  -3  22  -4  1504.14  1503.69   107.22 o
  -2   5   5  6864.79  6554.02   183.44 o
  -6   7   5  6832.57  6533.31   146.76 o
  -8   8   5  5844.45  5946.41   199.91 o
  -5   8   5   109.84    86.33     9.17 o
  -2   9  -5  4744.48  4949.77   165.06 o
  -4   9   5  1973.53  2089.50    74.95 o
  -9  10   5   969.02   984.00    56.12 o
  -1  10  -5   976.27  1023.99    45.99 o
  -6  10   5  5111.51  5143.25    98.67 o
  -4  10  -5  5133.27  5313.56   165.93 o
 -11  11   5  3874.09  4047.46   111.14 o
  -8  11   5  1212.29  1245.77    40.31 o
  -3  11  -5  1200.58  1209.03    77.35 o
  -6  11  -5 30965.20 30369.30   773.48 o
 -10  12   5   954.62   950.66    32.40 o
  -2  12  -5   950.11   990.65    48.06 o
  -7  12   5  6020.55  6016.54   225.92 o
  -5  12  -5  6001.59  5702.19   185.88 o
 -12  13   5  3310.29  3283.77    82.04 o
  -1  13  -5  3311.76  3228.55   104.92 o
  -9  13   5  4822.12  4628.97   124.02 o
  -4  13  -5  4817.32  4734.93   129.09 o
 -14  14   5  5068.28  5118.00   141.74 o
   0  14  -5  5044.03  5022.35   141.74 o
 -11  14   5  2819.14  2816.25    65.41 o
  -3  14  -5  2808.13  2849.80    74.76 o
  -6  14  -5  1991.33  2142.52    58.56 o
  -9  14  -5  5536.41  5358.27   149.81 o
 -12  14  -5   703.24   654.60    33.10 o
 -13  15   5   390.64   388.12    22.15 o
  -2  15  -5   389.91   349.52    24.98 o
 -10  15   5 21510.40 20128.80   599.21 o
  -5  15  -5 21616.10 20387.10   399.43 o
  -7  15   5  3635.95  3524.18   177.82 o
  -8  15  -5  3619.55  3518.87   129.53 o
 -11  15  -5   692.14   702.25    39.31 o
 -15  16   5  8985.92  9287.16   160.68 o
  -1  16  -5  9013.39  9470.31   161.19 o
 -12  16   5  8077.83  8192.33   213.02 o
  -4  16  -5  8100.76  8374.75   164.59 o
  -7  16  -5  2604.91  2554.66    69.33 o
 -10  16  -5  4677.59  4765.58   160.56 o
 -17  17   5  1329.48  1286.03    67.90 o
   0  17  -5  1316.85  1449.30    69.68 o
 -14  17   5  5908.91  5771.49   134.04 o
  -3  17  -5  5895.97  6110.91   134.77 o
 -11  17   5  5901.50  6085.91   254.16 o
  -6  17  -5  5937.82  5796.79   199.94 o
  -8  17   5   264.43   280.92    44.84 o
  -9  17  -5   262.59   240.88    18.78 o
 -16  18   5   496.37   493.23    32.52 o
  -2  18  -5   496.23   510.26    29.08 o
 -13  18   5   187.67   227.40    27.47 o
  -5  18  -5   192.45   192.56    19.33 o
 -10  18   5  1365.57  1079.91   100.51 o
 -11  18  -5  2501.27  2549.89    95.69 o
 -18  19   5   573.54   520.87    36.05 o
  -1  19  -5   573.55   571.16    31.75 o
 -15  19   5  1418.62  1500.77   109.78 o
  -4  19  -5  1412.80  1522.98    59.32 o
  -7  19  -5  1002.69   973.60    54.89 o
 -10  19  -5    91.72    77.35    15.22 o
 -20  20   5  3424.37  3329.09   167.67 o
   0  20  -5  3451.73  3482.98   173.92 o
 -17  20   5   488.58   438.64    57.84 o
  -3  20  -5   485.01   495.19    33.28 o
 -14  20   5   999.33   988.77    88.90 o
  -6  20  -5  1004.10  1026.84    68.93 o
  -9  20  -5  1015.27   997.70    62.12 o
 -19  21   5   896.10   903.17    86.65 o
  -2  21  -5   900.43   936.04    87.86 o
 -16  21   5  8299.88  7943.96   319.46 o
  -5  21  -5  8310.00  7981.04   280.50 o
  -8  21  -5  1351.49  1364.60    80.45 o
  -1  22  -5   290.42   322.52    46.59 o
  -4  22  -5  1397.05  1457.29    99.55 o
  -3  23  -5   650.24   740.47    73.61 o
  -5   7   6  1810.85  1895.55    79.42 o
  -2   7   6  2202.58  2426.11    77.28 o
  -7   8   6   594.43   729.93    53.29 o
  -4   8   6  5092.35  5133.46   105.49 o
  -9   9   6  9295.07  9436.74   205.33 o
  -6   9   6   843.78   852.27    33.23 o
  -8  10   6   183.30   184.35    14.49 o
  -5  10   6 18801.80 18312.40   480.47 o
 -10  11   6  3523.54  3756.46   102.88 o
  -1  11  -6  3570.91  3680.69   147.32 o
  -7  11   6  1436.40  1346.48    67.93 o
 -12  12   6  7773.76  7742.31   184.47 o
   0  12  -6  7758.82  7835.88   267.95 o
  -9  12   6  7419.06  7376.19   139.26 o
  -3  12  -6  7441.49  7333.61   232.40 o
 -11  13   6    43.46    43.48     7.24 o
  -2  13  -6    45.77    38.45    10.90 o
  -8  13   6   604.21   538.35    57.61 o
  -5  13  -6   595.88   577.62    40.91 o
 -13  14   6  1174.79  1145.56    38.97 o
  -1  14  -6  1170.25  1157.47    58.44 o
 -10  14   6   478.83   492.88    26.73 o
  -4  14  -6   475.83   439.94    43.53 o
  -7  14  -6  6228.45  5867.70   187.26 o
 -15  15   6  5365.10  5592.04   153.89 o
   0  15  -6  5405.21  5394.12   224.29 o
 -12  15   6    64.04    52.76     7.96 o
  -3  15  -6    58.83    38.33     9.98 o
  -9  15   6   250.82   117.98    27.98 o
  -6  15  -6   246.82   238.59    27.92 o
  -9  15  -6   200.01   181.30    20.19 o
 -14  16   6   231.05   227.62    17.46 o
  -2  16  -6   224.80   237.11    26.82 o
 -11  16   6  1400.71  1435.03   103.99 o
  -5  16  -6  1406.56  1337.94    63.78 o
  -8  16  -6  1643.97  1563.26    78.68 o
 -11  16  -6  6952.41  6694.82   195.33 o
 -16  17   6  1270.76  1293.51    46.62 o
  -1  17  -6  1276.97  1419.71   101.32 o
 -13  17   6  3842.55  3913.40   190.73 o
  -4  17  -6  3835.99  4050.41   169.81 o
 -10  17   6  1563.49  1557.03   118.79 o
  -7  17  -6  1547.79  1505.27    82.42 o
 -10  17  -6  1318.93  1438.80    69.06 o
 -18  18   6  1208.77  1238.69    66.27 o
   0  18  -6  1218.14  1208.25    96.69 o
 -15  18   6   143.21   129.67    16.27 o
  -3  18  -6   141.36   124.25    20.96 o
  -6  18  -6  1387.25  1339.48    66.46 o
  -9  18  -6  5081.93  5248.26   181.87 o
 -17  19   6   403.92   316.37    26.48 o
  -2  19  -6   400.74   338.12    47.57 o
  -5  19  -6   637.13   694.10    62.23 o
  -8  19  -6   605.76   576.63    49.77 o
 -19  20   6   776.17   749.90    49.71 o
 -16  20   6   460.44   472.10    61.30 o
  -4  20  -6   471.04   444.86    53.54 o
 -21  21   6  1651.26  1469.28   104.16 o
 -18  21   6   883.80   952.74    86.77 o
  -3  21  -6   880.80   870.80    55.12 o
  -2  22  -6   448.86   393.16    55.14 o
  -4   7   7  9280.54  9267.48   266.23 o
  -3   8   7  4162.83  4148.67   126.34 o
  -8   9   7   975.45   939.78    64.66 o
  -5   9   7   159.36   170.53    18.96 o
 -10  10   7   824.49   783.37    61.24 o
  -7  10   7  6830.41  6379.70   204.38 o
  -9  11   7   360.60   341.01    21.08 o
  -6  11   7  4385.98  4272.20   141.39 o
 -11  12   7   768.80   774.54    43.90 o
  -8  12   7   901.02   812.99    43.17 o
 -13  13   7  2350.58  2377.57    83.23 o
 -10  13   7  1137.83  1130.38    41.14 o
 -12  14   7  2634.49  2724.08    74.28 o
  -2  14  -7  2662.88  2754.52   127.51 o
 -14  15   7  1017.20   983.46    37.41 o
  -1  15  -7  1024.10   897.20    70.48 o
 -11  15   7  1178.40  1209.67    60.27 o
  -4  15  -7  1172.86  1234.60    73.34 o
 -16  16   7  1725.02  1728.94    75.16 o
   0  16  -7  1712.77  1695.93   109.56 o
 -13  16   7    57.54    87.15    12.84 o
  -3  16  -7    59.51    70.49    16.22 o
  -6  16  -7  3576.87  3534.64   139.04 o
 -15  17   7  1271.28  1253.60    44.88 o
  -2  17  -7  1263.96  1256.95    65.27 o
 -12  17   7  1540.79  1491.10   110.68 o
  -5  17  -7  1547.17  1632.20    89.56 o
 -17  18   7  1993.03  2085.67    61.39 o
  -1  18  -7  2010.04  2052.78    89.05 o
 -14  18   7  6890.97  6307.55   271.57 o
  -4  18  -7  6881.76  7390.73   260.67 o
  -7  18  -7  1738.01  1598.76    85.32 o
 -19  19   7   906.44   952.26    75.90 o
  -3  19  -7   368.40   473.39    52.83 o
  -6  19  -7   305.06   313.44    37.63 o
  -2  20  -7   197.37   205.10    38.32 o
  -5  20  -7  3269.40  3155.82   149.99 o
  -4  21  -7   763.13   725.57    68.13 o
  -5   8   8  4220.60  4428.49   151.13 o
  -2   8   8  3365.68  3467.79   103.33 o
  -7   9   8   827.75   892.03    56.36 o
  -4   9   8  8093.19  7846.61   223.87 o
  -9  10   8   144.05   139.96    22.79 o
  -6  10   8  3813.07  3577.03    84.78 o
 -11  11   8   478.92   489.34    49.55 o
  -8  11   8   446.56   477.32    25.71 o
 -10  12   8   459.53   462.94    28.52 o
 -12  13   8  1066.97  1130.28    57.29 o
  -9  13   8  2074.76  2145.41    98.34 o
 -14  14   8   226.54   221.78    34.66 o
 -11  14   8   446.14   430.34    42.65 o
 -13  15   8  1383.86  1481.18    68.13 o
 -15  16   8  3187.66  3415.49   116.82 o
 -12  16   8     2.40     0.29     7.24 <
 -17  17   8  1688.76  1698.77   111.25 o
 -14  17   8  1316.94  1464.88    70.44 o
 -16  18   8   223.85   238.08    28.46 o
 -18  19   8   175.86   161.70    30.36 o
  -1  19  -8   176.83   140.27    29.82 o
  -7  11   9  1486.75  1600.72    76.04 o
  -9  12   9  1067.39   867.11    60.60 o
 -11  13   9   150.60   138.42    22.93 o
 -13  14   9   806.75   730.45    62.64 o
 -15  15   9  6229.96  6680.95   255.74 o
