data_I
loop_
 _publ_author_name
 _publ_author_address
 'Likhacheva, A.Yu.'
; Sobolev Institute of Geology and Mineralogy SB RAS
3 Koptyuga Avenue
630090 Novosibirsk
RUSSIA
;
 'Rashchenko, S.V.'
; Sobolev Institute of Geology and Mineralogy SB RAS
3 Koptyuga Avenue
630090 Novosibirsk
RUSSIA
Novosibirsk State University
1 Pirogova Street
630090 Novosibirsk
RUSSIA
;
 'Musiyachenko, K.A.'
; Sobolev Institute of Geology and Mineralogy SB RAS
3 Koptyuga Avenue
630090 Novosibirsk
RUSSIA
;
 'Korsakov, A.V.'
; Sobolev Institute of Geology and Mineralogy SB RAS
3 Koptyuga Avenue
630090 Novosibirsk
RUSSIA
;
 'Collings, I.E.'
; European Synchrotron Radiation Facility
71 Avenue des Martyrs
38000 Grenoble
FRANCE
;
 'Hanfland, M'
; European Synchrotron Radiation Facility
71 Avenue des Martyrs
38000 Grenoble
FRANCE
;
_publ_section_title
; Compressibility and structure behaviour of maruyamaite (K-tourmaline)
from the Kokchetav massif at high pressure up to 20 GPa
;
_publ_section_abstract
;
The structural behaviour of maruyamaite (K-dominant tourmaline)
X(K0.54Na0.28Ca0.19)Y(Mg1.3Al1.17Fe0.39Ti0.14)Z(Al5Mg)
[Si5.95Al0.05O18](BO3)3(O0.23(OH)0.77)3O
from the ultrahigh-pressure metamorphic rocks of Kokchetav massif
was studied using synchrotron based single-crystal diffraction up to 20 GPa.
Within the whole pressure range the compression is regular and anisotropic,
with the c direction being more compressible than the a direction.
Fitting the V/P data with the 2nd and 3rd order
Birch-Murnaghan equations of state gives: V0 =1587.2(7) A3, K0 = 115.6(9) GPa
at fixed K'= 4, and V0 =1588(1) A3, K0 = 112(3) GPa, K' = 4.5(4).
The bulk modulus values are slightly higher as compared to those
found for dravite and cation-deficient synthetic K-dravite.
The pressure evolution of the main structural parameters of K-tourmaline
is similar to those of dravite. However, a minor change in the rigidity
of local contacts of the X site with 6-membered ring, due to the presence of K,
is apparently critical for stabilization of tourmaline structure
within 15-20 GPa, which is evinced by the absence of the phase transition
observed in dravite near 15.4 GPa. The stabilizing function of K
becomes apparent at P > 15 GPa. The comparison of the HP structural behaviour
of maruyamaite and dravite supports the recent suggestion that the large X site
plays a secondary role in the elastic behaviour of tourmaline,
compared to the octahedral framework. In addition, the present study reveals
several new features of polyhedra distortions, which demonstrate
their complex interaction on compression.
;
_publ_requested_journal                  'Mineralogy and Petrology'
_publ_contact_author_name                'Likhacheva, A.Yu'
_publ_contact_author_email               alih@igm.nsc.ru
_publ_contact_author_address
; Sobolev Institute of Geology and Mineralogy SB RAS
3 Koptyuga Avenue
630090 Novosibirsk
RUSSIA
;
_chemical_name_mineral                   maruyamaite
_chemical_formula_sum
'Al6.22 B3 Ca0.19 Fe0.39 H2.31 K0.54 Mg2.3 Na0.28 O31 Si5.95 Ti0.14'
_chemical_formula_weight                 985.2
_chemical_compound_source                'Kokchetav Massif (Kumdy-Kol area, northern Kazakhstan)'
_chemical_absolute_configuration         unk
_symmetry_cell_setting                   trigonal
_symmetry_space_group_name_H-M           'R 3 m'
_symmetry_space_group_name_Hall          'R 3;-2"'
_symmetry_Int_Tables_number              160
loop_
 _space_group_symop_id
 _space_group_symop_operation_xyz
 1   x,y,z
 2   -y,x-y,z
 3   -x+y,-x,z
 4   -y,-x,z
 5   -x+y,y,z
 6   x,x-y,z
 7   x+2/3,y+1/3,z+1/3
 8   -y+2/3,x-y+1/3,z+1/3
 9   -x+y+2/3,-x+1/3,z+1/3
 10  -y+2/3,-x+1/3,z+1/3
 11  -x+y+2/3,y+1/3,z+1/3
 12  x+2/3,x-y+1/3,z+1/3
 13  x+1/3,y+2/3,z+2/3
 14  -y+1/3,x-y+2/3,z+2/3
 15  -x+y+1/3,-x+2/3,z+2/3
 16  -y+1/3,-x+2/3,z+2/3
 17  -x+y+1/3,y+2/3,z+2/3
 18  x+1/3,x-y+2/3,z+2/3
_cell_length_a                           15.941(3)
_cell_length_b                           15.941(3)
_cell_length_c                           7.2214(14)
_cell_angle_alpha                        90
_cell_angle_beta                         90
_cell_angle_gamma                        120
_cell_volume                             1589.1(5)
_cell_formula_units_Z                    3
_cell_measurement_reflns_used            353
_cell_measurement_theta_min              2.56
_cell_measurement_theta_max              19.28
_cell_measurement_temperature            293
_exptl_crystal_density_diffrn            3.0885
_exptl_crystal_F_000                     1428
_exptl_absorpt_coefficient_mu            0.298
_exptl_crystal_description               platelet
_exptl_crystal_size_max                  0.040
_exptl_crystal_size_mid                  0.035
_exptl_crystal_size_min                  0.020
_exptl_crystal_colour                    brownish
_exptl_absorpt_correction_type           'multi-scan'
_exptl_absorpt_process_details
;
CrysAlisPro 1.171.39.46 (Rigaku Oxford Diffraction, 2018)
Empirical absorption correction using spherical harmonics,
 implemented in SCALE3 ABSPACK scaling algorithm.
;
_exptl_absorpt_correction_T_min          0.892
_exptl_absorpt_correction_T_max          1
_diffrn_ambient_temperature              293
_diffrn_ambient_pressure                 101
_diffrn_source                           'ESRF ID15B'
_diffrn_radiation_type                   'synchrotron'
_diffrn_radiation_wavelength             0.41122
_diffrn_radiation_monochromator          'Si(111) Bragg'
_diffrn_detector                         'MAR555 flat panel'
_diffrn_detector_area_resol_mean         7.2
_diffrn_measurement_device               'one-axis goniometer'
_diffrn_measurement_method               '\f scans'
_diffrn_reflns_number                    1094
_diffrn_reflns_theta_min                 1.48
_diffrn_reflns_theta_max                 21.4
_diffrn_reflns_theta_full                15.53
_diffrn_measured_fraction_theta_max      0.34
_diffrn_measured_fraction_theta_full     0.62
_diffrn_reflns_av_R_equivalents          0.0417
_diffrn_reflns_av_unetI/netI             0.0529
_diffrn_reflns_limit_h_min               -18
_diffrn_reflns_limit_h_max               21
_diffrn_reflns_limit_k_min               -20
_diffrn_reflns_limit_k_max               20
_diffrn_reflns_limit_l_min               -7
_diffrn_reflns_limit_l_max               8
_diffrn_radiation_probe                  X-ray
_refine_special_details
; Electron density of each mixed site was approximated by
corresponding occupancy of its major constituent
(0.79K for X, 0.95Si for T, 0.96Al for Z, 1.20Mg for Y).
;
_reflns_special_details
; Reflections outside DAC opening angle were omitted
during integration in CrysAlisPro software.
;
_reflns_number_total                     623
_reflns_number_gt                        571
_reflns_threshold_expression             'I>3\s(I)'
_refine_ls_structure_factor_coef         F
_refine_ls_R_factor_gt                   0.0317
_refine_ls_wR_factor_gt                  0.0337
_refine_ls_R_factor_all                  0.0357
_refine_ls_wR_factor_ref                 0.0356
_refine_ls_goodness_of_fit_ref           1.20
_refine_ls_goodness_of_fit_gt            1.20
_refine_ls_number_reflns                 623
_refine_ls_number_parameters             87
_refine_ls_number_restraints             0
_refine_ls_number_constraints            1
_refine_ls_weighting_scheme              sigma
_refine_ls_weighting_details             'w=1/(\s^2^(F)+0.0001F^2^)'
_refine_ls_hydrogen_treatment            'constr'
_refine_ls_shift/su_max                  0.0276
_refine_ls_shift/su_mean                 0.0017
_refine_diff_density_max                 0.57
_refine_diff_density_min                 -0.42
_refine_ls_extinction_method             'none'
loop_
 _atom_type_symbol
 _atom_type_scat_dispersion_real
 _atom_type_scat_dispersion_imag
 _atom_type_scat_source
 Al   0.0199  0.0165
 'International Tables Vol C tables 4.2.6.8 and 6.1.1.1'
 B   -0.0004  0.0002
 'International Tables Vol C tables 4.2.6.8 and 6.1.1.1'
 Ca   0.0951  0.1050
 'International Tables Vol C tables 4.2.6.8 and 6.1.1.1'
 Fe   0.1968  0.3058
 'International Tables Vol C tables 4.2.6.8 and 6.1.1.1'
 H    0.0000  0.0000
 'International Tables Vol C tables 4.2.6.8 and 6.1.1.1'
 K    0.0805  0.0845
 'International Tables Vol C tables 4.2.6.8 and 6.1.1.1'
 Mg   0.0142  0.0116
 'International Tables Vol C tables 4.2.6.8 and 6.1.1.1'
 Na   0.0096  0.0078
 'International Tables Vol C tables 4.2.6.8 and 6.1.1.1'
 O    0.0018  0.0018
 'International Tables Vol C tables 4.2.6.8 and 6.1.1.1'
 Si   0.0267  0.0229
 'International Tables Vol C tables 4.2.6.8 and 6.1.1.1'
 Ti   0.1267  0.1560
 'International Tables Vol C tables 4.2.6.8 and 6.1.1.1'
_computing_data_collection
 'CrysAlisPro 1.171.39.46 (Rigaku OD, 2018)'
_computing_cell_refinement
 'CrysAlisPro 1.171.39.46 (Rigaku OD, 2018)'
_computing_data_reduction
 'CrysAlisPro 1.171.39.46 (Rigaku OD, 2018)'
_computing_structure_solution            'SUPERFLIP (Palatinus & Chapuis, 2007)'
_computing_structure_refinement          'JANA2006 (Petricek et al., 2014)'
loop_
 _atom_site_label
 _atom_site_type_symbol
 _atom_site_fract_x
 _atom_site_fract_y
 _atom_site_fract_z
 _atom_site_adp_type
 _atom_site_U_iso_or_equiv
 _atom_site_site_symmetry_multiplicity
 _atom_site_occupancy
 _atom_site_calc_flag
 _atom_site_refinement_flags
 _atom_site_disorder_assembly
 _atom_site_disorder_group
  X K 0 0 0.2221(6) Uani 0.0223(10) 3 0.79 d . . .
  T Si 0.19181(7) 0.18991(7) 0.000162 Uani 0.0042(4) 18 0.949 d . . .
  Z Al 0.29792(8) 0.26144(8) 0.6120(3) Uani 0.0047(4) 18 0.961 d . . .
  B B 0.10993(19) 0.2199(4) 0.4554(9) Uani 0.006(2) 9 1 d . . .
  Y Mg 0.12372(11) 0.06186(6) 0.6370(3) Uani 0.0085(6) 9 1.2 d . . .
  O1 O -0.00977(19) 0.18520(19) -0.2221(5) Uani 0.0090(12) 18 1 d . . .
  O2 O -0.00030(19) 0.28507(17) 0.0786(5) Uani 0.0095(12) 18 1 d . . .
  O3 O 0.0604(2) 0.26957(19) 0.4417(5) Uani 0.0114(13) 18 1 d . . .
  O4 O 0.06117(14) -0.06117(14) 0.4893(8) Uani 0.0129(17) 9 1 d . . .
  O5 O 0 0 0.7717(12) Uani 0.011(2) 3 1 d . . .
  O6 O -0.1863(3) -0.09313(14) 0.0722(6) Uani 0.0105(16) 9 1 d . . .
  O7 O 0.24118(15) 0.4824(3) -0.2401(7) Uani 0.0102(15) 9 1 d . . .
  O8 O 0.20215(17) 0.4043(3) 0.1778(8) Uani 0.0159(17) 9 1 d . . .
loop_
 _atom_site_aniso_label
 _atom_site_aniso_type_symbol
 _atom_site_aniso_U_11
 _atom_site_aniso_U_22
 _atom_site_aniso_U_33
 _atom_site_aniso_U_12
 _atom_site_aniso_U_13
 _atom_site_aniso_U_23
 X K 0.0174(9) 0.0174(9) 0.032(3) 0.0087(5) 0 0
 T Si 0.0037(5) 0.0020(5) 0.0067(7) 0.0014(4) -0.0011(4) -0.0013(4)
 Z Al 0.0045(5) 0.0043(5) 0.0047(6) 0.0017(4) -0.0002(4) -0.0002(4)
 B B 0.0066(19) 0.005(3) 0.006(4) 0.0023(13) 0.0010(10) 0.0020(19)
 Y Mg 0.0076(8) 0.0054(6) 0.0133(11) 0.0038(4) -0.0042(6) -0.0021(3)
 O1 O 0.0098(13) 0.0113(14) 0.005(2) 0.0046(11) 0.0006(10) -0.0032(10)
 O2 O 0.0128(14) 0.0074(13) 0.0106(18) 0.0068(12) 0.0000(11) -0.0002(10)
 O3 O 0.0090(14) 0.0085(15) 0.018(2) 0.0052(12) 0.0028(10) 0.0022(10)
 O4 O 0.0116(16) 0.0116(16) 0.020(4) 0.0094(18) 0.0012(8) -0.0012(8)
 O5 O 0.010(2) 0.010(2) 0.012(5) 0.0052(10) 0 0
 O6 O 0.015(2) 0.0078(14) 0.011(3) 0.0074(11) 0.0001(16) 0.0000(8)
 O7 O 0.0103(14) 0.015(2) 0.007(3) 0.0074(11) -0.0013(7) -0.0025(15)
 O8 O 0.0155(16) 0.026(2) 0.010(3) 0.0129(12) -0.0003(9) -0.0006(18)
loop_
 _geom_bond_atom_site_label_1
 _geom_bond_atom_site_label_2
 _geom_bond_site_symmetry_1
 _geom_bond_site_symmetry_2
 _geom_bond_distance
 _geom_bond_publ_flag
  X T . . 3.439(3) ?
  X T . 2_555 3.439(2) ?
  X T . 3_555 3.439(2) ?
  X T . 4_555 3.439(3) ?
  X T . 5_555 3.439(2) ?
  X T . 6_555 3.439(2) ?
  X Y . . 3.448(4) ?
  X Y . 2_555 3.448(4) ?
  X Y . 3_555 3.448(4) ?
  X O4 . . 2.564(6) ?
  X O4 . 2_555 2.564(6) ?
  X O4 . 3_555 2.564(6) ?
  X O6 . . 2.790(4) ?
  X O6 . 2_555 2.790(5) ?
  X O6 . 3_555 2.790(4) ?
  X O7 . 7_445 2.709(5) ?
  X O7 . 8_555 2.709(5) ?
  X O7 . 9_455 2.709(5) ?
  T O1 . 5_555 1.609(4) ?
  T O2 . 5_555 1.607(3) ?
  T O6 . 3_555 1.630(6) ?
  T O7 . 8_555 1.645(6) ?
  Z Z . 8_555 2.958(3) ?
  Z Z . 15_554 2.958(3) ?
  Z Y . . 3.005(2) ?
  B O3 . . 1.374(7) ?
  B O3 . 5_555 1.374(5) ?
  B O4 . 2_555 1.368(6) ?
  Y Y . 2_555 2.958(3) ?
  Y Y . 3_555 2.958(2) ?
  Y O1 . 3_556 1.990(5) ?
  Y O1 . 5_556 1.990(3) ?
  Y O4 . . 2.005(4) ?
  Y O4 . 2_555 2.005(5) ?
  Y O5 . . 1.966(5) ?
loop_
 _geom_angle_atom_site_label_1
 _geom_angle_atom_site_label_2
 _geom_angle_atom_site_label_3
 _geom_angle_site_symmetry_1
 _geom_angle_site_symmetry_2
 _geom_angle_site_symmetry_3
 _geom_angle
 _geom_angle_publ_flag
  T X T . . 2_555 100.03(8) ?
  T X T . . 3_555 100.03(8) ?
  T X T . . 4_555 124.43(12) ?
  T X T . . 5_555 53.35(5) ?
  T X T . . 6_555 51.66(5) ?
  T X Y . . . 91.35(4) ?
  T X Y . . 2_555 114.12(5) ?
  T X Y . . 3_555 141.49(8) ?
  T X O4 . . . 110.22(5) ?
  T X O4 . . 2_555 81.29(8) ?
  T X O4 . . 3_555 149.08(10) ?
  T X O6 . . . 121.93(14) ?
  T X O6 . . 2_555 79.17(10) ?
  T X O6 . . 3_555 27.94(12) ?
  T X O7 . . 7_445 123.76(15) ?
  T X O7 . . 8_555 27.96(13) ?
  T X O7 . . 9_455 81.20(10) ?
  T X T 2_555 . 3_555 100.03(8) ?
  T X T 2_555 . 4_555 53.35(5) ?
  T X T 2_555 . 5_555 51.66(4) ?
  T X T 2_555 . 6_555 124.43(12) ?
  T X Y 2_555 . . 141.49(9) ?
  T X Y 2_555 . 2_555 91.35(4) ?
  T X Y 2_555 . 3_555 114.12(6) ?
  T X O4 2_555 . . 149.08(10) ?
  T X O4 2_555 . 2_555 110.22(8) ?
  T X O4 2_555 . 3_555 81.29(10) ?
  T X O6 2_555 . . 27.94(7) ?
  T X O6 2_555 . 2_555 121.93(14) ?
  T X O6 2_555 . 3_555 79.17(12) ?
  T X O7 2_555 . 7_445 81.20(11) ?
  T X O7 2_555 . 8_555 123.76(17) ?
  T X O7 2_555 . 9_455 27.96(7) ?
  T X T 3_555 . 4_555 51.66(5) ?
  T X T 3_555 . 5_555 124.43(12) ?
  T X T 3_555 . 6_555 53.35(4) ?
  T X Y 3_555 . . 114.12(5) ?
  T X Y 3_555 . 2_555 141.49(9) ?
  T X Y 3_555 . 3_555 91.35(5) ?
  T X O4 3_555 . . 81.29(9) ?
  T X O4 3_555 . 2_555 149.08(11) ?
  T X O4 3_555 . 3_555 110.22(6) ?
  T X O6 3_555 . . 79.17(10) ?
  T X O6 3_555 . 2_555 27.94(6) ?
  T X O6 3_555 . 3_555 121.93(16) ?
  T X O7 3_555 . 7_445 27.96(8) ?
  T X O7 3_555 . 8_555 81.20(13) ?
  T X O7 3_555 . 9_455 123.76(15) ?
  T X T 4_555 . 5_555 100.03(8) ?
  T X T 4_555 . 6_555 100.03(8) ?
  T X Y 4_555 . . 141.49(8) ?
  T X Y 4_555 . 2_555 114.12(5) ?
  T X Y 4_555 . 3_555 91.35(4) ?
  T X O4 4_555 . . 110.22(5) ?
  T X O4 4_555 . 2_555 149.08(10) ?
  T X O4 4_555 . 3_555 81.29(8) ?
  T X O6 4_555 . . 27.94(8) ?
  T X O6 4_555 . 2_555 79.17(8) ?
  T X O6 4_555 . 3_555 121.93(15) ?
  T X O7 4_555 . 7_445 27.96(9) ?
  T X O7 4_555 . 8_555 123.76(16) ?
  T X O7 4_555 . 9_455 81.20(9) ?
  T X T 5_555 . 6_555 100.03(8) ?
  T X Y 5_555 . . 114.12(5) ?
  T X Y 5_555 . 2_555 91.35(5) ?
  T X Y 5_555 . 3_555 141.49(9) ?
  T X O4 5_555 . . 149.08(10) ?
  T X O4 5_555 . 2_555 81.29(10) ?
  T X O4 5_555 . 3_555 110.22(8) ?
  T X O6 5_555 . . 79.17(9) ?
  T X O6 5_555 . 2_555 121.93(15) ?
  T X O6 5_555 . 3_555 27.94(11) ?
  T X O7 5_555 . 7_445 123.76(16) ?
  T X O7 5_555 . 8_555 81.20(14) ?
  T X O7 5_555 . 9_455 27.96(8) ?
  T X Y 6_555 . . 91.35(5) ?
  T X Y 6_555 . 2_555 141.49(8) ?
  T X Y 6_555 . 3_555 114.12(6) ?
  T X O4 6_555 . . 81.29(9) ?
  T X O4 6_555 . 2_555 110.22(6) ?
  T X O4 6_555 . 3_555 149.08(11) ?
  T X O6 6_555 . . 121.93(15) ?
  T X O6 6_555 . 2_555 27.94(7) ?
  T X O6 6_555 . 3_555 79.17(13) ?
  T X O7 6_555 . 7_445 81.20(9) ?
  T X O7 6_555 . 8_555 27.96(12) ?
  T X O7 6_555 . 9_455 123.76(16) ?
  Y X Y . . 2_555 50.80(7) ?
  Y X Y . . 3_555 50.80(7) ?
  Y X O4 . . . 35.23(8) ?
  Y X O4 . . 2_555 35.23(10) ?
  Y X O4 . . 3_555 70.88(14) ?
  Y X O6 . . . 142.52(15) ?
  Y X O6 . . 2_555 96.25(10) ?
  Y X O6 . . 3_555 96.25(11) ?
  Y X O7 . . 7_445 122.08(13) ?
  Y X O7 . . 8_555 80.41(12) ?
  Y X O7 . . 9_455 122.08(12) ?
  Y X Y 2_555 . 3_555 50.80(8) ?
  Y X O4 2_555 . . 70.88(14) ?
  Y X O4 2_555 . 2_555 35.23(8) ?
  Y X O4 2_555 . 3_555 35.23(8) ?
  Y X O6 2_555 . . 96.25(11) ?
  Y X O6 2_555 . 2_555 142.52(15) ?
  Y X O6 2_555 . 3_555 96.25(12) ?
  Y X O7 2_555 . 7_445 122.08(12) ?
  Y X O7 2_555 . 8_555 122.08(13) ?
  Y X O7 2_555 . 9_455 80.41(12) ?
  Y X O4 3_555 . . 35.23(9) ?
  Y X O4 3_555 . 2_555 70.88(14) ?
  Y X O4 3_555 . 3_555 35.23(10) ?
  Y X O6 3_555 . . 96.25(10) ?
  Y X O6 3_555 . 2_555 96.25(11) ?
  Y X O6 3_555 . 3_555 142.52(15) ?
  Y X O7 3_555 . 7_445 80.41(12) ?
  Y X O7 3_555 . 8_555 122.08(14) ?
  Y X O7 3_555 . 9_455 122.08(13) ?
  O4 X O4 . . 2_555 69.56(15) ?
  O4 X O4 . . 3_555 69.56(15) ?
  O4 X O6 . . . 126.55(10) ?
  O4 X O6 . . 2_555 71.63(14) ?
  O4 X O6 . . 3_555 126.55(12) ?
  O4 X O7 . . 7_445 87.09(12) ?
  O4 X O7 . . 8_555 87.09(14) ?
  O4 X O7 . . 9_455 151.3(2) ?
  O4 X O4 2_555 . 3_555 69.56(14) ?
  O4 X O6 2_555 . . 126.55(12) ?
  O4 X O6 2_555 . 2_555 126.55(11) ?
  O4 X O6 2_555 . 3_555 71.63(13) ?
  O4 X O7 2_555 . 7_445 151.3(2) ?
  O4 X O7 2_555 . 8_555 87.09(12) ?
  O4 X O7 2_555 . 9_455 87.09(12) ?
  O4 X O6 3_555 . . 71.63(13) ?
  O4 X O6 3_555 . 2_555 126.55(12) ?
  O4 X O6 3_555 . 3_555 126.55(14) ?
  O4 X O7 3_555 . 7_445 87.09(11) ?
  O4 X O7 3_555 . 8_555 151.3(2) ?
  O4 X O7 3_555 . 9_455 87.09(13) ?
  O6 X O6 . . 2_555 105.91(14) ?
  O6 X O6 . . 3_555 105.91(15) ?
  O6 X O7 . . 7_445 55.52(11) ?
  O6 X O7 . . 8_555 137.1(2) ?
  O6 X O7 . . 9_455 55.52(9) ?
  O6 X O6 2_555 . 3_555 105.91(16) ?
  O6 X O7 2_555 . 7_445 55.52(9) ?
  O6 X O7 2_555 . 8_555 55.52(14) ?
  O6 X O7 2_555 . 9_455 137.1(2) ?
  O6 X O7 3_555 . 7_445 137.1(2) ?
  O6 X O7 3_555 . 8_555 55.52(17) ?
  O6 X O7 3_555 . 9_455 55.52(14) ?
  O7 X O7 7_445 . 8_555 108.84(16) ?
  O7 X O7 7_445 . 9_455 108.84(14) ?
  O7 X O7 8_555 . 9_455 108.84(17) ?
  X T O1 . . 5_555 117.31(11) ?
  X T O2 . . 5_555 131.58(14) ?
  X T O6 . . 3_555 53.30(15) ?
  X T O7 . . 8_555 50.53(16) ?
  O1 T O2 5_555 . 5_555 111.07(16) ?
  O1 T O6 5_555 . 3_555 111.7(2) ?
  O1 T O7 5_555 . 8_555 110.6(2) ?
  O2 T O6 5_555 . 3_555 110.2(2) ?
  O2 T O7 5_555 . 8_555 110.1(2) ?
  O6 T O7 3_555 . 8_555 102.9(2) ?
  Z Z Z 8_555 . 15_554 119.56(6) ?
  Z Z Y 8_555 . . 121.87(8) ?
  Z Z Y 15_554 . . 113.05(7) ?
  O3 B O3 . . 5_555 119.4(4) ?
  O3 B O4 . . 2_555 120.3(2) ?
  O3 B O4 5_555 . 2_555 120.3(5) ?
  X Y Z . . . 110.14(7) ?
  X Y Z . . 6_555 110.14(8) ?
  X Y Y . . 2_555 64.60(7) ?
  X Y Y . . 3_555 64.60(6) ?
  X Y O1 . . 3_556 133.57(12) ?
  X Y O1 . . 5_556 133.57(13) ?
  X Y O4 . . . 47.53(13) ?
  X Y O4 . . 2_555 47.53(13) ?
  X Y O5 . . . 90.0(2) ?
  Z Y Z . . 6_555 73.26(6) ?
  Z Y Y . . 2_555 113.25(6) ?
  Z Y Y . . 3_555 172.47(9) ?
  Z Y O1 . . 3_556 93.11(10) ?
  Z Y O1 . . 5_556 38.34(11) ?
  Z Y O4 . . . 138.41(16) ?
  Z Y O4 . . 2_555 82.97(7) ?
  Z Y O5 . . . 136.47(14) ?
  Z Y Y 6_555 . 2_555 172.47(7) ?
  Z Y Y 6_555 . 3_555 113.25(7) ?
  Z Y O1 6_555 . 3_556 38.34(12) ?
  Z Y O1 6_555 . 5_556 93.11(15) ?
  Z Y O4 6_555 . . 82.97(10) ?
  Z Y O4 6_555 . 2_555 138.41(15) ?
  Z Y O5 6_555 . . 136.47(14) ?
  Y Y Y 2_555 . 3_555 60.00(6) ?
  Y Y O1 2_555 . 3_556 141.22(14) ?
  Y Y O1 2_555 . 5_556 94.40(15) ?
  Y Y O4 2_555 . . 89.53(10) ?
  Y Y O4 2_555 . 2_555 42.48(12) ?
  Y Y O5 2_555 . . 41.19(15) ?
  Y Y O1 3_555 . 3_556 94.40(9) ?
  Y Y O1 3_555 . 5_556 141.22(15) ?
  Y Y O4 3_555 . . 42.48(12) ?
  Y Y O4 3_555 . 2_555 89.53(9) ?
  Y Y O5 3_555 . . 41.19(15) ?
  O1 Y O1 3_556 . 5_556 89.30(17) ?
  O1 Y O4 3_556 . . 88.42(14) ?
  O1 Y O4 3_556 . 2_555 175.88(13) ?
  O1 Y O5 3_556 . . 100.2(2) ?
  O1 Y O4 5_556 . . 175.88(18) ?
  O1 Y O4 5_556 . 2_555 88.42(17) ?
  O1 Y O5 5_556 . . 100.2(2) ?
  O4 Y O4 . . 2_555 93.65(18) ?
  O4 Y O5 . . . 83.63(18) ?
  O4 Y O5 2_555 . . 83.63(19) ?
  T O1 Y 5_555 . 2_554 122.73(18) ?
  X O4 B . . 3_555 120.9(4) ?
  X O4 Y . . . 97.23(13) ?
  X O4 Y . . 3_555 97.23(13) ?
  B O4 Y 3_555 . . 120.3(3) ?
  B O4 Y 3_555 . 3_555 120.3(3) ?
  Y O4 Y . . 3_555 95.0(2) ?
  Y O5 Y . . 2_555 97.6(3) ?
  Y O5 Y . . 3_555 97.6(3) ?
  Y O5 Y 2_555 . 3_555 97.6(3) ?
  X O6 T . . 2_555 98.77(11) ?
  X O6 T . . 4_555 98.8(2) ?
  T O6 T 2_555 . 4_555 142.6(3) ?
  X O7 T 13_554 . 15_554 101.50(11) ?
  X O7 T 13_554 . 16_554 101.5(2) ?
  T O7 T 15_554 . 16_554 131.2(3) ?
loop_
 _refln_index_h
 _refln_index_k
 _refln_index_l
 _refln_F_squared_calc
 _refln_F_squared_meas
 _refln_F_squared_sigma
 _refln_observed_status
  -1   2   0    18.08     0.28     1.68 <
   0   3   0  8284.06  8125.70   220.88 o
  -3   3   0  8286.80  8213.71   227.03 o
  -1   5   0  8232.35  8747.25   278.30 o
  -4   5   0  8218.16  8513.99   188.31 o
   0   6   0  5259.93  4630.50   236.40 o
  -2   7   0   995.03   967.23    72.35 o
  -5   7   0   976.60   922.98    72.17 o
  -4   8   0 11801.50 12724.40   393.53 o
  -1   8   0  1340.41  1174.31   101.88 o
  -7   8   0  1349.98  1076.80   101.42 o
  -3   9   0   536.28   538.64    65.22 o
  -6   9   0   527.66   667.92    69.10 o
  -9   9   0 24103.40 24145.10   720.73 o
  -2  10   0  9398.20  9553.08   285.64 o
  -8  10   0  9453.42  8575.33   440.82 o
  -4  11   0 17210.50 17851.90   574.82 o
  -1  11   0 43826.70 43682.80   968.14 o
  -6  12   0 34388.90 34583.30   595.30 o
  -3  12   0 17120.60 17835.90   431.98 o
  -9  12   0 17092.60 17194.60   424.29 o
 -12  12   0  4876.96  5100.82   373.99 o
  -5  13   0  3995.39  4030.24   213.37 o
  -8  13   0  3980.97  4121.74   277.46 o
  -2  13   0  2992.16  3133.47   276.45 o
  -7  14   0  1042.38   769.55   103.80 o
  -4  14   0  1026.52   872.13   106.81 o
 -10  14   0  1027.28   735.79   107.71 o
  -1  14   0   484.54   305.42   107.89 <
 -13  14   0   486.47   317.52   121.83 <
  -6  15   0  4592.86  4743.35   248.88 o
  -9  15   0  4613.04  4856.03   254.40 o
  -3  15   0  1094.87  1096.61   179.36 o
 -12  15   0  1090.11   832.36   206.41 o
   0  15   0 21598.30 21463.60   856.19 o
  -8  16   0  4210.68  3914.84   241.05 o
  -5  16   0  5041.63  5316.60   389.16 o
 -11  16   0  5021.27  5123.36   328.25 o
  -2  16   0   913.68   705.18   162.93 o
 -14  16   0   912.22  1100.70   205.01 o
  -7  17   0   234.17   234.97    61.58 o
 -10  17   0   230.37   223.57    58.02 o
  -4  17   0  1446.13  1255.84   204.18 o
 -13  17   0  1444.84  1508.14   230.70 o
 -16  17   0 10315.40 10231.40   667.82 o
  -9  18   0  1129.09  1094.20   136.97 o
  -6  18   0   177.02   114.88    46.06 <
 -12  18   0   169.11   116.77    41.07 <
  -3  18   0  4333.75  4201.39   397.24 o
  -8  19   0  3542.10  3385.74   328.60 o
 -11  19   0  3542.43  3560.59   256.70 o
  -5  19   0   729.61   903.86   178.80 o
 -14  19   0   723.89   296.65   160.14 <
  -2  19   0   402.78   288.19   119.18 <
 -17  19   0   398.28   333.80   144.10 <
 -10  20   0 10224.60 10655.70   455.50 o
  -7  20   0  2579.21  2270.78   232.80 o
 -13  20   0  2579.10  2688.29   239.68 o
  -4  20   0  2863.94  3096.85   343.24 o
  -2   3   1 14449.70 13952.00   228.74 o
  -1   3  -1 14360.90 14353.20   179.82 o
  -4   4   1  1847.25  2217.03    85.84 o
   0   4  -1  1842.67  2260.85   118.44 o
  -3   4  -1  4477.19  4433.70   207.63 o
  -3   5   1  5225.35  5347.56   147.00 o
  -5   6   1 16637.10 17627.40   427.57 o
  -1   6  -1 16807.80 18332.40   233.25 o
  -2   6   1  3056.03  2786.77   180.97 o
  -4   6  -1  3083.12  2811.62   117.61 o
  -7   7   1  2199.65  2857.34   195.65 o
   0   7  -1  2183.02  2363.85   172.55 o
  -4   7   1 15945.80 16823.40   462.42 o
  -3   7  -1 16055.60 18139.10   483.95 o
  -1   7   1 11347.80 11464.60   406.99 o
  -6   7  -1 11403.80 10928.30   417.68 o
  -6   8   1 13144.80 14108.40   459.31 o
  -3   8   1  2042.77  2288.46   124.28 o
  -5   8  -1  2044.07  2445.53   194.95 o
  -1   9  -1  6480.10  6774.45   323.07 o
  -5   9   1  1757.69  1942.08   122.43 o
  -4   9  -1  1729.45  1990.48   187.05 o
 -10  10   1 74941.10 77814.80  1285.93 o
  -7  10   1  3274.66  2972.08   209.38 o
  -3  10  -1  3266.62  3326.43   132.95 o
  -4  10   1  9982.57 10423.30   411.11 o
  -1  10   1  5414.65  5330.93   335.83 o
  -9  11   1  1912.58  1750.59   143.75 o
  -2  11  -1  1914.92  1867.46   188.59 o
  -6  11   1 20893.50 20476.50   446.17 o
  -5  11  -1 20992.30 21846.50   688.54 o
  -8  11  -1  4772.29  4567.98   338.91 o
 -11  12   1 16056.00 15894.10   479.02 o
  -8  12   1  6742.95  7381.24   361.94 o
  -4  12  -1  6725.45  6841.38   354.04 o
  -5  12   1  5656.83  5727.43   245.10 o
  -7  12  -1  5592.17  5585.81   242.83 o
 -13  13   1  3548.14  3827.12   344.08 o
 -10  13   1  8437.68  8399.64   316.71 o
  -3  13  -1  8435.02  8477.43   312.07 o
  -7  13   1  1649.39  1565.98   133.33 o
  -6  13  -1  1636.73  1554.10   134.52 o
  -4  13   1  2576.43  2699.61   240.17 o
  -9  13  -1  2588.20  2476.21   174.99 o
  -1  13   1     2.13     7.44    28.55 <
 -12  13  -1     2.90    -4.89    23.17 <
 -12  14   1  7706.92  8430.36   507.57 o
  -2  14  -1  7664.92  7275.97   311.54 o
  -5  14  -1  5011.22  5433.43   339.46 o
  -6  14   1  1664.54  1555.43   145.29 o
  -8  14  -1  1687.06  1357.48   145.91 o
 -11  14  -1  5526.74  5082.47   419.99 o
 -14  15   1  1266.91  1190.66   149.51 o
  -1  15  -1  1279.99  1140.23   133.54 o
 -11  15   1  8245.56  8483.34   344.85 o
  -4  15  -1  8292.61  7876.93   488.77 o
  -8  15   1  1244.19  1037.65   128.37 o
  -7  15  -1  1256.55  1332.94   136.51 o
 -10  15  -1 11429.20 12013.70   406.92 o
  -2  15   1  4838.34  5099.07   407.06 o
 -16  16   1   397.67   287.57   112.36 <
   0  16  -1   416.22   393.74   116.87 o
 -13  16   1  5845.46  6228.78   300.08 o
 -10  16   1  7183.09  7766.25   438.58 o
  -6  16  -1  7243.91  7547.11   438.02 o
  -7  16   1  7681.87  7742.76   491.11 o
  -9  16  -1  7708.82  7587.13   338.98 o
  -4  16   1  7798.93  7538.58   493.07 o
 -15  17   1   238.37   274.77    87.55 o
  -2  17  -1   234.35   172.96    54.70 o
 -12  17   1  1364.20  1446.42   154.30 o
  -5  17  -1  1346.59  1386.62   147.17 o
  -8  17  -1  5795.93  6123.23   306.40 o
  -6  17   1  8641.49  8764.72   380.67 o
 -11  17  -1  8693.08  9230.60   448.30 o
 -14  17  -1  3210.89  3450.19   390.39 o
 -17  18   1  1236.51  1280.38   244.96 o
  -1  18  -1  1233.12  1086.62   148.96 o
 -14  18   1  1586.96  1738.50   172.96 o
  -4  18  -1  1595.42  1427.03   166.67 o
 -11  18   1  3208.95  3135.78   372.46 o
  -7  18  -1  3229.88  3414.33   238.74 o
  -8  18   1  3094.47  2718.31   218.43 o
 -10  18  -1  3072.70  2902.49   222.73 o
  -5  18   1   845.93   495.86   151.05 o
 -13  18  -1   844.43   782.14   191.24 o
  -2  18   1  2865.07  2697.34   336.95 o
   0  19  -1  3682.31  3973.76   383.29 o
 -16  19   1   399.25   276.17   137.42 <
  -3  19  -1   389.00   310.35   117.64 <
 -13  19   1  4095.33  3374.90   264.36 o
  -6  19  -1  4064.44  3834.32   278.16 o
 -10  19   1   878.27   697.10   115.30 o
  -9  19  -1   866.87   693.47   120.93 o
  -7  19   1  1015.81  1005.25   140.64 o
 -12  19  -1  1012.34   874.37   136.62 o
  -4  19   1  2808.23  2158.59   328.67 o
 -15  19  -1  2810.60  2806.69   413.84 o
 -15  20   1  4383.32  4164.07   298.89 o
  -5  20  -1  4390.05  4345.14   405.38 o
 -12  20   1  2033.19  2111.97   198.23 o
  -8  20  -1  2009.58  2054.93   204.91 o
  -9  20   1  1115.21  1240.92   151.96 o
 -11  20  -1  1134.34  1164.20   152.76 o
  -6  20   1  3138.30  3550.77   365.96 o
 -14  20  -1  3165.81  2269.34   381.68 o
  -3   4   2  5200.70  5033.16   158.74 o
  -4   6   2  8073.72  8488.69   197.15 o
  -2   6  -2  8040.25  8447.38   204.18 o
  -6   7   2  2435.13  2402.96    91.50 o
  -1   7  -2  2451.11  2358.54   154.51 o
  -8   8   2  3156.74  3475.91   151.61 o
  -5   8   2  1325.14  1366.25   114.60 o
  -3   8  -2  1332.80  1157.21    86.64 o
  -6   8  -2  7313.60  8103.23   377.98 o
  -7   9   2 15427.30 16420.70   488.80 o
  -2   9  -2 15371.40 16082.60   313.88 o
  -9  10   2  2062.75  1979.19   122.11 o
  -1  10  -2  2053.97  1883.47   125.15 o
  -6  10   2 14800.80 13879.60   508.41 o
  -4  10  -2 14813.50 14446.80   270.93 o
  -3  10   2   985.28  1115.45   153.57 o
  -7  10  -2   987.16  1090.53   159.82 o
 -11  11   2   194.55    97.72    35.68 <
   0  11  -2   195.03   128.34    33.59 o
  -8  11   2 11442.80 11437.50   485.27 o
  -3  11  -2 11466.50 11521.90   438.30 o
  -5  11   2 10807.60 11147.90   442.85 o
  -6  11  -2 10837.70 11187.40   323.56 o
  -2  11   2   862.17   477.31   125.12 o
  -9  11  -2   872.85   843.61   143.92 o
 -10  12   2  3476.88  3559.93   274.53 o
  -2  12  -2  3436.81  3177.65   173.77 o
  -5  12  -2  4369.80  3961.74   256.64 o
 -12  13   2  4200.75  4095.11   181.70 o
  -1  13  -2  4191.09  4210.02   177.05 o
  -9  13   2  4171.36  4251.26   294.20 o
  -4  13  -2  4144.00  4391.55   284.66 o
  -6  13   2   519.35   483.39    75.14 o
  -7  13  -2   519.11   348.62    70.49 o
  -3  13   2  2027.98  2164.46   252.06 o
 -10  13  -2  2013.32  1405.99   245.94 o
 -11  14   2  1578.59  1662.06   141.69 o
  -3  14  -2  1561.51  1561.13   110.93 o
  -8  14   2 12538.50 11949.50   394.34 o
  -6  14  -2 12626.60 12188.20   388.99 o
  -5  14   2  4834.77  4251.19   336.46 o
 -13  15   2  1894.02  1854.56   133.30 o
  -2  15  -2  1905.31  1779.39   128.16 o
 -10  15   2  2566.40  2768.88   196.70 o
  -5  15  -2  2565.43  2882.85   249.47 o
  -7  15   2  4183.19  3836.52   235.80 o
  -8  15  -2  4184.93  4001.06   370.64 o
 -11  15  -2  5906.43  6406.81   474.16 o
 -15  16   2  2247.32  2004.85   204.98 o
  -1  16  -2  2264.27  2018.13   147.49 o
 -12  16   2  5616.26  6012.62   296.83 o
  -4  16  -2  5624.86  6133.54   299.66 o
  -9  16   2  2195.62  2161.18   187.15 o
  -7  16  -2  2187.39  2197.45   181.98 o
  -6  16   2  7874.37  8060.07   500.69 o
 -10  16  -2  7893.50  7494.79   540.71 o
  -3  16   2 10578.80 10394.90   616.16 o
 -17  17   2   226.27   266.07    99.71 <
   0  17  -2   229.91   238.74    83.56 <
 -14  17   2  3111.34  3059.20   222.91 o
  -3  17  -2  3141.92  3174.64   222.24 o
 -11  17   2   986.89  1146.31   137.28 o
  -6  17  -2   991.15  1091.61   131.17 o
  -8  17   2  2779.72  2857.90   220.18 o
  -9  17  -2  2771.75  2309.29   321.64 o
  -5  17   2   711.92   772.42   155.56 o
 -12  17  -2   701.03   724.36   183.62 o
  -2  18  -2  3993.19  3775.74   207.32 o
 -13  18   2  3921.96  4183.81   263.45 o
  -5  18  -2  3956.42  4146.21   407.62 o
 -10  18   2   941.12   754.11   124.32 o
  -8  18  -2   930.95   836.69   121.83 o
  -7  18   2  1956.77  2041.54   286.90 o
 -11  18  -2  1955.00  2600.35   331.15 o
  -4  18   2   803.73   801.43   180.16 o
 -14  18  -2   797.82   907.36   188.17 o
 -18  19   2  1369.76  1482.56   257.51 o
  -1  19  -2  1352.26  1224.21   146.96 o
 -15  19   2   536.96   345.37    83.53 o
  -4  19  -2   529.17   416.88    94.57 o
 -12  19   2  2412.05  2023.79   204.60 o
  -7  19  -2  2407.16  2247.92   206.10 o
  -9  19   2  1003.55   827.74   125.96 o
 -10  19  -2  1009.08  1034.23   143.47 o
  -6  19   2  4797.57  4390.68   425.44 o
 -17  20   2   519.48   435.09   164.93 <
  -3  20  -2   515.65   425.16    94.71 o
 -14  20   2  1939.71  1847.57   198.09 o
  -6  20  -2  1938.10  2048.46   197.95 o
 -11  20   2  1087.33  1355.13   162.48 o
  -9  20  -2  1091.84  1029.89   140.11 o
  -8  20   2  2765.65  2735.36   333.42 o
 -12  20  -2  2744.30  2183.72   379.62 o
  -2  21  -2   814.31  1114.93   198.20 o
  -2   4   3 17722.00 16484.10   267.05 o
  -4   5   3   639.32   634.44    82.34 o
  -1   5  -3   634.09   555.91    54.49 o
  -6   6   3 21392.20 20526.00   325.00 o
   0   6  -3 21429.50 20594.80   362.64 o
  -3   6   3  8542.80  8480.20   340.79 o
  -5   7   3   570.99   534.41    37.43 o
  -2   7  -3   573.74   583.90    43.97 o
  -5   7  -3   272.64   253.94    20.86 o
  -7   8   3  3497.74  3434.00   125.12 o
  -1   8  -3  3482.81  3433.41   177.75 o
  -4   8   3   470.56   354.35    84.23 o
  -4   8  -3   487.23   384.30    37.96 o
  -9   9   3  7525.51  7545.05   240.80 o
   0   9  -3  7595.76  7363.94   233.67 o
  -6   9   3 14058.10 13107.10   446.93 o
  -8  10   3  1252.15  1139.29    67.98 o
  -2  10  -3  1236.32  1184.20    78.95 o
  -5  10  -3 15360.80 16437.30   602.18 o
 -10  11   3 26928.50 27479.50   536.65 o
  -1  11  -3 26791.80 26616.50   390.88 o
  -7  11   3  3600.63  3613.43   184.64 o
  -4  11  -3  3568.06  3406.57   120.30 o
  -4  11   3  2752.53  2588.15   250.66 o
  -7  11  -3  2735.24  2784.29   257.75 o
 -12  12   3  1806.92  1698.44   213.23 o
   0  12  -3  1831.05  1701.69   136.02 o
  -9  12   3 11076.90 11224.40   280.36 o
  -3  12  -3 11073.20 10933.50   265.06 o
  -6  12   3   325.56   223.01    76.12 <
  -6  12  -3   314.75   279.56    55.95 o
 -11  13   3  1332.84  1168.92    99.64 o
  -2  13  -3  1345.18  1253.92    81.22 o
  -8  13   3   788.34   748.20    92.93 o
  -5  13  -3   775.12   704.90    69.97 o
  -8  13  -3  4443.45  4806.54   369.17 o
 -13  14   3   641.00   492.65    70.81 o
  -1  14  -3   632.28   578.70    61.97 o
 -10  14   3     7.75     2.90    12.48 <
  -4  14  -3     6.96     2.97     9.89 <
  -7  14  -3  7589.10  7765.41   301.20 o
  -4  14   3  1831.20  1565.22   227.52 o
 -15  15   3  6603.32  6723.46   483.60 o
   0  15  -3  6551.87  6625.42   302.52 o
 -12  15   3  5509.13  5556.42   225.21 o
  -3  15  -3  5517.87  5495.96   185.16 o
  -9  15   3 10401.00 10416.60   382.03 o
  -6  15  -3 10412.00 10967.60   319.05 o
  -9  15  -3  8625.75  9582.09   571.81 o
 -14  16   3  1305.78  1187.97   114.98 o
  -2  16  -3  1305.08  1375.30   100.20 o
 -11  16   3  1377.15  1259.79   145.91 o
  -5  16  -3  1374.98  1273.74   109.25 o
  -8  16   3  5194.90  5113.30   403.32 o
  -8  16  -3  5220.18  6011.74   467.48 o
  -5  16   3  7643.70  6659.81   501.60 o
 -11  16  -3  7595.10  7899.65   547.66 o
  -1  17  -3  3714.41  3567.72   201.07 o
 -13  17   3  1783.99  1478.75   169.33 o
  -4  17  -3  1804.96  1699.53   131.20 o
 -10  17   3  2441.97  2274.38   195.82 o
  -7  17  -3  2461.04  2310.48   187.12 o
  -7  17   3  3755.80  3767.11   367.67 o
 -10  17  -3  3771.33  4091.93   412.27 o
 -18  18   3  3212.42  3372.70   380.22 o
   0  18  -3  3213.70  3380.39   328.56 o
 -15  18   3  1481.29  1332.66   154.93 o
  -3  18  -3  1492.16  1482.07   123.62 o
 -12  18   3  6427.60  6462.49   451.48 o
  -6  18  -3  6408.25  6798.11   335.20 o
  -9  18   3  7082.07  7184.06   498.31 o
  -9  18  -3  7062.46  7528.55   572.05 o
  -6  18   3  1515.93  1477.00   227.49 o
 -12  18  -3  1505.70  1558.23   267.19 o
 -17  19   3  4489.53  4391.41   468.18 o
  -2  19  -3  4483.23  4751.29   268.87 o
 -14  19   3   568.60   515.02    98.10 o
  -5  19  -3   581.21   581.28    81.08 o
 -11  19   3  2035.51  2045.74   195.86 o
  -8  19  -3  2035.90  2224.36   204.32 o
  -8  19   3   508.71   338.00   123.55 <
 -11  19  -3   512.17   420.90   154.06 <
 -19  20   3  1770.70  2014.84   219.34 o
  -1  20  -3  1765.76  1861.13   181.91 o
 -16  20   3   558.54   716.75   116.87 o
  -4  20  -3   550.02   524.21    76.47 o
 -13  20   3   962.38   808.73   140.25 o
  -7  20  -3   964.13  1016.79   137.04 o
 -10  20   3  1762.31  1521.81   253.38 o
 -10  20  -3  1742.04  1833.14   309.30 o
  -3  21  -3  2321.24  2292.13   285.96 o
   0   7  -4  6269.46  5408.41   292.04 o
  -3   7  -4 36668.70 33074.90   498.94 o
  -6   8   4  5474.41  5431.62   187.15 o
  -5   8  -4 10622.50 10500.50   230.74 o
  -8   9   4  3390.81  3215.29   156.82 o
  -1   9  -4  3403.61  3123.93   222.63 o
  -5   9   4 13236.50 13849.50   509.32 o
  -4   9  -4 13180.10 12528.90   264.74 o
   0  10  -4 25720.90 26293.50   722.37 o
  -7  10   4  1752.31  1740.59    79.09 o
  -3  10  -4  1774.81  1802.31   124.00 o
  -6  10  -4  3560.27  3649.75   156.15 o
  -9  11   4  1197.49  1203.00    69.90 o
  -2  11  -4  1207.63  1204.33    83.46 o
  -6  11   4  6308.02  6412.06   381.58 o
  -5  11  -4  6294.24  6457.25   233.36 o
  -8  11  -4  2644.32  2804.84    87.58 o
 -11  12   4  4142.94  4348.67   206.62 o
  -1  12  -4  4132.31  4358.35   169.02 o
  -8  12   4  1225.67  1005.25    82.06 o
  -4  12  -4  1236.87  1021.30   104.08 o
  -5  12   4  1479.00  1299.49   191.07 o
  -7  12  -4  1474.51  1580.03    80.77 o
 -13  13   4    32.65     6.57    14.57 <
   0  13  -4    30.48    -1.82    12.48 <
 -10  13   4   197.03   166.08    37.50 o
  -3  13  -4   196.79   187.92    30.06 o
  -7  13   4  7132.92  7076.10   428.24 o
  -6  13  -4  7149.45  7213.80   275.19 o
 -12  14   4  3133.65  3080.00   197.88 o
  -2  14  -4  3134.65  3132.25   131.30 o
  -9  14   4  1763.15  1629.38   151.51 o
  -5  14  -4  1765.50  1661.12   230.46 o
  -8  14  -4  9650.37  9833.23   336.25 o
 -14  15   4  2735.01  2766.33   160.21 o
  -1  15  -4  2742.46  2647.29   129.14 o
 -11  15   4  7859.36  7854.88   474.09 o
  -4  15  -4  7826.43  7561.93   239.58 o
  -7  15  -4  3150.33  2919.06   187.47 o
 -16  16   4  9973.65 10072.80   608.05 o
   0  16  -4  9957.99  9673.79   371.13 o
 -13  16   4  1376.07  1318.82   114.36 o
  -3  16  -4  1370.08  1275.45    90.55 o
 -10  16   4 16111.90 16612.90   714.89 o
  -6  16  -4 16034.70 16721.00   368.19 o
  -7  16   4  5446.54  5122.70   417.65 o
  -9  16  -4  5462.43  5808.30   463.36 o
 -15  17   4  1979.11  1918.03   145.74 o
  -2  17  -4  1983.89  1945.64   117.96 o
 -12  17   4  1898.89  1976.05   181.46 o
  -5  17  -4  1885.53  2116.06   114.74 o
  -9  17   4  1741.63  1326.65   236.22 o
  -8  17  -4  1742.38  1790.08   166.12 o
 -17  18   4  1850.93  1680.44   194.42 o
  -1  18  -4  1850.45  1973.11   125.54 o
 -14  18   4  1601.63  1747.34   174.05 o
  -4  18  -4  1624.76  1743.46   126.52 o
 -11  18   4   624.80   554.93   103.87 o
  -7  18  -4   624.84   610.50    99.75 o
  -8  18   4   923.15   509.84   155.18 o
 -10  18  -4   922.93   650.10   183.27 o
 -19  19   4  2988.95  3082.87   379.62 o
   0  19  -4  2987.80  3324.51   247.30 o
 -16  19   4   185.84   166.67    55.40 o
  -3  19  -4   186.94   163.63    40.54 o
 -13  19   4    25.91     4.30    31.45 <
  -6  19  -4    26.66     5.35    12.13 <
 -10  19   4    97.43    69.62    65.46 <
  -9  19  -4    98.19    -6.19    56.30 <
  -7  19   4  1323.45  1534.95   255.06 o
 -18  20   4   245.79    72.38    49.80 <
  -2  20  -4   245.31    61.90    33.38 <
 -15  20   4  6262.17  6054.77   351.35 o
  -5  20  -4  6274.85  6393.22   269.92 o
 -12  20   4   161.11   102.16    47.95 <
  -8  20  -4   162.06   133.37    93.73 <
  -4  21  -4  1682.06  1683.83   218.96 o
  -3  22  -4  1440.74  1555.71   230.60 o
  -4   6   5   322.27   286.76    54.77 o
  -6   7   5  6703.04  6231.44   197.57 o
  -3   7   5  9907.88  9804.22   215.99 o
  -8   8   5  5699.87  5773.70   202.22 o
  -5   8   5   139.04   165.35    26.77 o
  -7   9   5  5044.31  5570.68   201.80 o
  -9  10   5   901.07   793.88    60.50 o
  -1  10  -5   908.43   901.10    95.83 o
  -6  10   5  4908.09  5009.25   186.21 o
  -4  10  -5  4933.89  4176.65   229.27 o
 -11  11   5  3438.04  3580.41   279.21 o
   0  11  -5  3394.65  3466.82   283.65 o
  -8  11   5  1244.23  1082.00    76.99 o
  -3  11  -5  1233.54  1181.30   137.84 o
  -6  11  -5 29721.90 29644.70   500.48 o
 -10  12   5   885.34   754.25    63.33 o
  -2  12  -5   881.57   812.40    75.32 o
  -7  12   5  5838.32  6045.09   396.22 o
  -5  12  -5  5820.65  5967.43   273.58 o
 -12  13   5  3054.63  3226.05   174.47 o
  -1  13  -5  3054.90  3158.46   202.15 o
  -9  13   5  4881.82  3878.91   334.29 o
  -7  13  -5  2863.35  2740.15   112.29 o
 -10  13  -5  7508.58  7193.11   185.97 o
 -14  14   5  4915.47  4736.26   239.05 o
   0  14  -5  4892.96  4795.74   234.13 o
 -11  14   5  2593.82  2952.33   271.07 o
  -3  14  -5  2583.86  2593.96   136.86 o
  -8  14   5  1880.07  1767.85   230.74 o
  -6  14  -5  1858.32  1866.41   109.53 o
  -9  14  -5  5187.70  5066.71   143.54 o
 -12  14  -5   583.26   591.42    56.79 o
 -13  15   5   345.61   322.38    58.23 o
  -2  15  -5   345.12   354.70    55.29 o
  -5  15  -5 21108.30 22441.30   403.35 o
  -7  15   5  3392.96  3088.32   345.02 o
  -8  15  -5  3377.79  3306.54   137.95 o
 -11  15  -5   733.98   712.73    67.10 o
 -15  16   5  8339.65  8858.21   298.40 o
  -1  16  -5  8368.14  8872.23   289.07 o
 -12  16   5  7784.12  7574.93   265.23 o
  -4  16  -5  7805.39  8196.72   258.73 o
  -9  16   5  2601.72  2093.30   277.33 o
  -7  16  -5  2618.07  2454.33   133.30 o
 -10  16  -5  4253.12  4481.51   152.38 o
 -17  17   5  1099.63  1183.78   133.75 o
   0  17  -5  1088.52  1205.83   132.49 o
 -14  17   5  5751.62  5875.65   283.65 o
  -3  17  -5  5739.81  6129.80   265.34 o
  -6  17  -5  5642.49  5729.63   301.68 o
  -8  17   5   312.87   306.54   109.25 <
  -9  17  -5   310.84   256.53    45.82 o
 -16  18   5   456.04   404.12    71.44 o
  -2  18  -5   455.89   513.06    64.48 o
 -13  18   5   113.96    70.81    28.13 <
  -5  18  -5   116.95   118.41    29.67 o
 -10  18   5  1389.42  1047.30   205.19 o
  -8  18  -5  1390.15  1245.85   139.52 o
 -18  19   5   589.77   617.07    90.90 o
  -1  19  -5   589.70   523.58    67.77 o
 -15  19   5  1296.93  1227.85   157.41 o
  -4  19  -5  1291.96  1353.39   126.55 o
 -12  19   5  1042.54  1000.68   196.24 o
  -7  19  -5  1033.07   953.18   128.16 o
  -9  19   5    31.92    31.52    43.97 <
 -10  19  -5    33.08    21.88    23.63 <
 -20  20   5  3488.18  3405.00   401.15 o
   0  20  -5  3515.31  3623.36   314.96 o
 -17  20   5   420.68   232.17    69.37 o
  -3  20  -5   417.46   349.64    52.84 o
 -14  20   5   945.06   904.53   143.75 o
  -6  20  -5   949.13   961.85   145.21 o
  -9  20  -5   833.05  1002.49   139.10 o
 -19  21   5   863.50   660.72   180.62 o
  -2  21  -5   867.56   997.25   156.61 o
  -5  21  -5  7572.78  7451.21   419.01 o
  -8  21  -5  1230.66  1521.18   179.61 o
  -4  22  -5  1280.69  1641.02   206.69 o
  -7  22  -5   501.83   440.36   104.43 o
  -5   7   6  1802.75  1652.52   141.76 o
  -7   8   6   503.39   399.86    52.28 o
  -4   8   6  5184.02  5483.31   183.76 o
  -9   9   6  8752.30  8820.74   271.17 o
  -6   9   6   928.35   864.72    65.08 o
  -8  10   6   206.51   175.76    31.49 o
  -5  10   6 17907.60 17351.40   351.00 o
 -10  11   6  3593.16  3665.20   154.48 o
  -7  11   6  1376.45  1448.62   131.55 o
 -12  12   6  7714.59  7959.52   287.04 o
  -9  12   6  7359.89  6995.61   201.59 o
  -3  12  -6  7381.46  7765.48   352.89 o
 -11  13   6    42.77    38.97    16.71 <
  -2  13  -6    44.90    14.75    10.59 <
  -8  13   6   594.41   412.65    73.15 o
  -5  13  -6   587.21   404.37    79.82 o
 -13  14   6  1129.92  1113.81    81.75 o
  -1  14  -6  1126.40  1091.89   126.97 o
 -10  14   6   376.25   365.78    65.91 o
  -4  14  -6   373.47   332.20    83.14 o
 -15  15   6  5152.10  5252.08   334.85 o
   0  15  -6  5188.39  5515.49   407.76 o
 -12  15   6    71.10    46.41    19.15 <
  -3  15  -6    65.94    10.28    10.66 <
  -9  15   6   319.61   160.73    73.64 <
  -6  15  -6   315.66   326.25    72.03 o
  -9  15  -6   180.79   197.22    44.81 o
 -14  16   6   280.29   133.51    35.86 o
  -2  16  -6   273.94   166.95    49.17 o
 -11  16   6  1047.55  1200.41   191.63 o
  -5  16  -6  1052.66  1083.40    93.80 o
  -8  16  -6  1817.93  1863.02   156.29 o
 -16  17   6  1228.02  1377.75   101.84 o
  -1  17  -6  1232.48  1479.59   164.82 o
 -13  17   6  3644.80  3501.95   187.15 o
  -4  17  -6  3641.19  3924.59   181.81 o
 -10  17   6  1366.02  1492.10   230.07 o
  -7  17  -6  1352.01  1283.17   154.06 o
 -10  17  -6  1208.98  1435.80   122.81 o
 -18  18   6  1153.01  1316.51   140.43 o
   0  18  -6  1161.50  1093.08   209.42 o
 -15  18   6   153.20   121.07    36.45 o
  -3  18  -6   151.76   125.89    32.78 o
 -12  18   6  1293.88  1244.66   215.46 o
  -6  18  -6  1293.78  1415.67   108.90 o
  -9  18  -6  4935.69  4723.54   280.75 o
 -17  19   6   442.25   304.48    62.70 o
  -2  19  -6   439.29   385.67    66.54 o
 -14  19   6   684.95   659.39   144.48 o
  -5  19  -6   681.95   730.52    82.34 o
 -11  19   6   598.68   491.70   133.93 o
  -8  19  -6   604.81   506.56   102.44 o
 -19  20   6   868.36   756.34   136.48 o
  -1  20  -6   865.00   642.30   107.40 o
 -16  20   6   365.97   350.23   140.78 <
  -4  20  -6   374.71   411.64    73.39 o
  -7  20  -6   622.90   667.82   103.69 o
  -3  21  -6   793.29   873.46   114.74 o
  -6  21  -6  1241.20  1173.54   162.06 o
 -20  22   6   414.43   497.02   155.42 o
  -2  22  -6   410.70   381.16   102.19 o
  -5  22  -6   206.79   177.44    67.80 <
  -4  23  -6   563.46   570.38   118.30 o
  -6   8   7   883.67   922.63   110.75 o
  -3   8   7  4006.55  4163.61    94.29 o
  -8   9   7   954.32   888.38    85.38 o
  -5   9   7   195.89   205.78    28.34 o
 -10  10   7   690.78   771.20   122.74 o
  -7  10   7  6239.57  6289.35   188.97 o
  -9  11   7   404.37   388.18    46.73 o
 -11  12   7   771.37   833.30    73.36 o
  -8  12   7   734.29   732.54    64.62 o
 -13  13   7  2127.35  2207.45   158.25 o
 -10  13   7  1039.42  1004.45    79.37 o
 -12  14   7  2651.93  2862.16   141.86 o
 -14  15   7  1009.03   956.57    79.65 o
  -1  15  -7  1016.40  1052.54   167.13 o
 -11  15   7  1235.34  1115.66   122.71 o
 -16  16   7  1623.38  1495.25   143.47 o
   0  16  -7  1613.14  1450.02   229.93 o
 -13  16   7    60.55    32.22    23.70 <
  -3  16  -7    62.16    99.22    49.42 <
 -15  17   7  1132.93  1191.78   109.60 o
  -2  17  -7  1126.70  1163.05   140.64 o
 -12  17   7  1511.78  1490.70   224.20 o
 -17  18   7  1703.19  1790.08   142.14 o
  -1  18  -7  1718.16  1774.46   186.80 o
 -14  18   7  6314.02  6301.86   446.93 o
  -4  18  -7  6308.60  6887.27   425.58 o
 -19  19   7   853.08   804.22   181.77 o
   0  19  -7   859.13   795.66   199.07 o
 -16  19   7   372.00   432.40    75.63 o
  -3  19  -7   371.90   406.78    87.06 o
 -13  19   7   308.43   365.99   110.02 o
 -18  20   7   125.79    49.38    35.30 <
  -2  20  -7   121.95    48.02    41.69 <
 -20  21   7    97.60    49.00    67.21 <
  -5   8   8  3929.71  3813.98   218.19 o
  -7   9   8   828.80   825.93   108.03 o
  -4   9   8  8342.72  8709.05   154.55 o
  -9  10   8   149.36   147.91    50.75 <
  -6  10   8  3863.64  3923.09   191.03 o
 -11  11   8   498.51   478.04    95.45 o
  -8  11   8   415.51   465.25    53.05 o
 -10  12   8   448.68   450.74    61.62 o
 -12  13   8  1084.31  1275.87   109.50 o
  -9  13   8  1912.82  1483.96   160.38 o
 -14  14   8   348.10   293.05    83.67 o
 -11  14   8   370.34   380.57    49.45 o
 -13  15   8  1210.65  1335.91    99.33 o
 -15  16   8  3092.50  3326.39   187.40 o
 -12  16   8    12.00   -34.77    55.19 <
 -17  17   8  1721.84  1905.80   208.96 o
 -14  17   8  1294.87  1245.71   197.54 o
 -16  18   8   208.21   213.33    78.39 <
 -18  19   8   153.90   127.15    45.12 <
