data_I
loop_
 _publ_author_name
 _publ_author_address
 'Likhacheva, A.Yu.'
; Sobolev Institute of Geology and Mineralogy SB RAS
3 Koptyuga Avenue
630090 Novosibirsk
RUSSIA
;
 'Rashchenko, S.V.'
; Sobolev Institute of Geology and Mineralogy SB RAS
3 Koptyuga Avenue
630090 Novosibirsk
RUSSIA
Novosibirsk State University
1 Pirogova Street
630090 Novosibirsk
RUSSIA
;
 'Musiyachenko, K.A.'
; Sobolev Institute of Geology and Mineralogy SB RAS
3 Koptyuga Avenue
630090 Novosibirsk
RUSSIA
;
 'Korsakov, A.V.'
; Sobolev Institute of Geology and Mineralogy SB RAS
3 Koptyuga Avenue
630090 Novosibirsk
RUSSIA
;
 'Collings, I.E.'
; European Synchrotron Radiation Facility
71 Avenue des Martyrs
38000 Grenoble
FRANCE
;
 'Hanfland, M'
; European Synchrotron Radiation Facility
71 Avenue des Martyrs
38000 Grenoble
FRANCE
;
_publ_section_title
; Compressibility and structure behaviour of maruyamaite (K-tourmaline)
from the Kokchetav massif at high pressure up to 20 GPa
;
_publ_section_abstract
;
The structural behaviour of maruyamaite (K-dominant tourmaline)
X(K0.54Na0.28Ca0.19)Y(Mg1.3Al1.17Fe0.39Ti0.14)Z(Al5Mg)
[Si5.95Al0.05O18](BO3)3(O0.23(OH)0.77)3O
from the ultrahigh-pressure metamorphic rocks of Kokchetav massif
was studied using synchrotron based single-crystal diffraction up to 20 GPa.
Within the whole pressure range the compression is regular and anisotropic,
with the c direction being more compressible than the a direction.
Fitting the V/P data with the 2nd and 3rd order
Birch-Murnaghan equations of state gives: V0 =1587.2(7) A3, K0 = 115.6(9) GPa
at fixed K'= 4, and V0 =1588(1) A3, K0 = 112(3) GPa, K' = 4.5(4).
The bulk modulus values are slightly higher as compared to those
found for dravite and cation-deficient synthetic K-dravite.
The pressure evolution of the main structural parameters of K-tourmaline
is similar to those of dravite. However, a minor change in the rigidity
of local contacts of the X site with 6-membered ring, due to the presence of K,
is apparently critical for stabilization of tourmaline structure
within 15-20 GPa, which is evinced by the absence of the phase transition
observed in dravite near 15.4 GPa. The stabilizing function of K
becomes apparent at P > 15 GPa. The comparison of the HP structural behaviour
of maruyamaite and dravite supports the recent suggestion that the large X site
plays a secondary role in the elastic behaviour of tourmaline,
compared to the octahedral framework. In addition, the present study reveals
several new features of polyhedra distortions, which demonstrate
their complex interaction on compression.
;
_publ_requested_journal                  'Mineralogy and Petrology'
_publ_contact_author_name                'Likhacheva, A.Yu'
_publ_contact_author_email               alih@igm.nsc.ru
_publ_contact_author_address
; Sobolev Institute of Geology and Mineralogy SB RAS
3 Koptyuga Avenue
630090 Novosibirsk
RUSSIA
;
_chemical_name_mineral                   maruyamaite
_chemical_formula_sum
'Al6.22 B3 Ca0.19 Fe0.39 H2.31 K0.54 Mg2.3 Na0.28 O31 Si5.95 Ti0.14'
_chemical_formula_weight                 985.2
_chemical_compound_source                'Kokchetav Massif (Kumdy-Kol area, northern Kazakhstan)'
_chemical_absolute_configuration         unk
_symmetry_cell_setting                   trigonal
_symmetry_space_group_name_H-M           'R 3 m'
_symmetry_space_group_name_Hall          'R 3;-2"'
_symmetry_Int_Tables_number              160
loop_
 _space_group_symop_id
 _space_group_symop_operation_xyz
 1   x,y,z
 2   -y,x-y,z
 3   -x+y,-x,z
 4   -y,-x,z
 5   -x+y,y,z
 6   x,x-y,z
 7   x+2/3,y+1/3,z+1/3
 8   -y+2/3,x-y+1/3,z+1/3
 9   -x+y+2/3,-x+1/3,z+1/3
 10  -y+2/3,-x+1/3,z+1/3
 11  -x+y+2/3,y+1/3,z+1/3
 12  x+2/3,x-y+1/3,z+1/3
 13  x+1/3,y+2/3,z+2/3
 14  -y+1/3,x-y+2/3,z+2/3
 15  -x+y+1/3,-x+2/3,z+2/3
 16  -y+1/3,-x+2/3,z+2/3
 17  -x+y+1/3,y+2/3,z+2/3
 18  x+1/3,x-y+2/3,z+2/3
_cell_length_a                           15.764(3)
_cell_length_b                           15.764(3)
_cell_length_c                           7.0218(14)
_cell_angle_alpha                        90
_cell_angle_beta                         90
_cell_angle_gamma                        120
_cell_volume                             1511.2(5)
_cell_formula_units_Z                    3
_cell_measurement_reflns_used            492
_cell_measurement_theta_min              2.59
_cell_measurement_theta_max              19.89
_cell_measurement_temperature            293
_exptl_crystal_density_diffrn            3.2476
_exptl_crystal_F_000                     1428
_exptl_absorpt_coefficient_mu            0.313
_exptl_crystal_description               platelet
_exptl_crystal_size_max                  0.040
_exptl_crystal_size_mid                  0.035
_exptl_crystal_size_min                  0.020
_exptl_crystal_colour                    brownish
_exptl_absorpt_correction_type           'multi-scan'
_exptl_absorpt_process_details
;
CrysAlisPro 1.171.39.46 (Rigaku Oxford Diffraction, 2018)
Empirical absorption correction using spherical harmonics,
 implemented in SCALE3 ABSPACK scaling algorithm.
;
_exptl_absorpt_correction_T_min          0.95
_exptl_absorpt_correction_T_max          1
_diffrn_ambient_temperature              293
_diffrn_ambient_pressure                 6100000
_diffrn_source                           'ESRF ID15B'
_diffrn_radiation_type                   'synchrotron'
_diffrn_radiation_wavelength             0.41122
_diffrn_radiation_monochromator          'Si(111) Bragg'
_diffrn_detector                         'MAR555 flat panel'
_diffrn_detector_area_resol_mean         7.2
_diffrn_measurement_device               'one-axis goniometer'
_diffrn_measurement_method               '\f scans'
_diffrn_reflns_number                    1225
_diffrn_reflns_theta_min                 1.49
_diffrn_reflns_theta_max                 21.36
_diffrn_reflns_theta_full                10.41
_diffrn_measured_fraction_theta_max      0.38
_diffrn_measured_fraction_theta_full     0.72
_diffrn_reflns_av_R_equivalents          0.0252
_diffrn_reflns_av_unetI/netI             0.0297
_diffrn_reflns_limit_h_min               -19
_diffrn_reflns_limit_h_max               21
_diffrn_reflns_limit_k_min               -21
_diffrn_reflns_limit_k_max               21
_diffrn_reflns_limit_l_min               -7
_diffrn_reflns_limit_l_max               8
_diffrn_radiation_probe                  X-ray
_refine_special_details
; Electron density of each mixed site was approximated by
corresponding occupancy of its major constituent
(0.79K for X, 0.95Si for T, 0.96Al for Z, 1.20Mg for Y).
;
_reflns_special_details
; Reflections outside DAC opening angle were omitted
during integration in CrysAlisPro software.
;
_reflns_number_total                     690
_reflns_number_gt                        669
_reflns_threshold_expression             'I>3\s(I)'
_refine_ls_structure_factor_coef         F
_refine_ls_R_factor_gt                   0.0215
_refine_ls_wR_factor_gt                  0.0285
_refine_ls_R_factor_all                  0.0227
_refine_ls_wR_factor_ref                 0.0294
_refine_ls_goodness_of_fit_ref           1.45
_refine_ls_goodness_of_fit_gt            1.44
_refine_ls_number_reflns                 690
_refine_ls_number_parameters             87
_refine_ls_number_restraints             0
_refine_ls_number_constraints            1
_refine_ls_weighting_scheme              sigma
_refine_ls_weighting_details             'w=1/(\s^2^(F)+0.0001F^2^)'
_refine_ls_hydrogen_treatment            'constr'
_refine_ls_shift/su_max                  0.0493
_refine_ls_shift/su_mean                 0.0053
_refine_diff_density_max                 0.26
_refine_diff_density_min                 -0.36
_refine_ls_extinction_method             'none'
loop_
 _atom_type_symbol
 _atom_type_scat_dispersion_real
 _atom_type_scat_dispersion_imag
 _atom_type_scat_source
 Al   0.0199  0.0165
 'International Tables Vol C tables 4.2.6.8 and 6.1.1.1'
 B   -0.0004  0.0002
 'International Tables Vol C tables 4.2.6.8 and 6.1.1.1'
 Ca   0.0951  0.1050
 'International Tables Vol C tables 4.2.6.8 and 6.1.1.1'
 Fe   0.1968  0.3058
 'International Tables Vol C tables 4.2.6.8 and 6.1.1.1'
 H    0.0000  0.0000
 'International Tables Vol C tables 4.2.6.8 and 6.1.1.1'
 K    0.0805  0.0845
 'International Tables Vol C tables 4.2.6.8 and 6.1.1.1'
 Mg   0.0142  0.0116
 'International Tables Vol C tables 4.2.6.8 and 6.1.1.1'
 Na   0.0096  0.0078
 'International Tables Vol C tables 4.2.6.8 and 6.1.1.1'
 O    0.0018  0.0018
 'International Tables Vol C tables 4.2.6.8 and 6.1.1.1'
 Si   0.0267  0.0229
 'International Tables Vol C tables 4.2.6.8 and 6.1.1.1'
 Ti   0.1267  0.1560
 'International Tables Vol C tables 4.2.6.8 and 6.1.1.1'
_computing_data_collection
 'CrysAlisPro 1.171.39.46 (Rigaku OD, 2018)'
_computing_cell_refinement
 'CrysAlisPro 1.171.39.46 (Rigaku OD, 2018)'
_computing_data_reduction
 'CrysAlisPro 1.171.39.46 (Rigaku OD, 2018)'
_computing_structure_solution            'SUPERFLIP (Palatinus & Chapuis, 2007)'
_computing_structure_refinement          'JANA2006 (Petricek et al., 2014)'
loop_
 _atom_site_label
 _atom_site_type_symbol
 _atom_site_fract_x
 _atom_site_fract_y
 _atom_site_fract_z
 _atom_site_adp_type
 _atom_site_U_iso_or_equiv
 _atom_site_site_symmetry_multiplicity
 _atom_site_occupancy
 _atom_site_calc_flag
 _atom_site_refinement_flags
 _atom_site_disorder_assembly
 _atom_site_disorder_group
  X K 0 0 0.2153(4) Uani 0.0178(6) 3 0.79 d . . .
  T Si 0.19196(5) 0.18990(5) 0.006191 Uani 0.0043(3) 18 0.949 d . . .
  Z Al 0.29665(6) 0.26046(6) 0.61164(19) Uani 0.0053(3) 18 0.961 d . . .
  B B 0.10982(15) 0.2196(3) 0.4515(7) Uani 0.0083(15) 9 1 d . . .
  Y Mg 0.12305(8) 0.06153(4) 0.6352(2) Uani 0.0079(4) 9 1.2 d . . .
  O1 O -0.00942(14) 0.18359(13) -0.2201(4) Uani 0.0094(8) 18 1 d . . .
  O2 O -0.00386(14) 0.28381(13) 0.0833(3) Uani 0.0097(8) 18 1 d . . .
  O3 O 0.06083(15) 0.26986(14) 0.4394(4) Uani 0.0107(8) 18 1 d . . .
  O4 O 0.06014(10) -0.06014(10) 0.4853(5) Uani 0.0116(11) 9 1 d . . .
  O5 O 0 0 0.7827(9) Uani 0.0149(16) 3 1 d . . .
  O6 O -0.1898(2) -0.09488(10) 0.0832(5) Uani 0.0103(11) 9 1 d . . .
  O7 O 0.24211(11) 0.4842(2) -0.2302(5) Uani 0.0107(11) 9 1 d . . .
  O8 O 0.20207(12) 0.4041(2) 0.1725(6) Uani 0.0153(12) 9 1 d . . .
loop_
 _atom_site_aniso_label
 _atom_site_aniso_type_symbol
 _atom_site_aniso_U_11
 _atom_site_aniso_U_22
 _atom_site_aniso_U_33
 _atom_site_aniso_U_12
 _atom_site_aniso_U_13
 _atom_site_aniso_U_23
 X K 0.0153(6) 0.0153(6) 0.0229(15) 0.0076(3) 0 0
 T Si 0.0034(4) 0.0026(3) 0.0067(5) 0.0013(3) -0.0009(3) -0.0007(3)
 Z Al 0.0042(4) 0.0047(4) 0.0068(5) 0.0019(3) -0.0002(3) 0.0004(3)
 B B 0.0062(14) 0.0056(18) 0.013(3) 0.0028(9) 0.0006(7) 0.0011(14)
 Y Mg 0.0065(5) 0.0038(4) 0.0144(8) 0.0033(3) -0.0044(4) -0.0022(2)
 O1 O 0.0105(9) 0.0113(10) 0.0068(15) 0.0058(8) -0.0002(7) -0.0003(7)
 O2 O 0.0114(9) 0.0078(9) 0.0104(13) 0.0051(8) 0.0017(8) 0.0010(7)
 O3 O 0.0086(10) 0.0087(10) 0.0174(13) 0.0061(8) 0.0014(7) 0.0010(7)
 O4 O 0.0123(11) 0.0123(11) 0.014(2) 0.0093(12) 0.0000(5) 0.0000(5)
 O5 O 0.0133(16) 0.0133(16) 0.018(4) 0.0066(8) 0 0
 O6 O 0.0161(15) 0.0071(10) 0.0107(19) 0.0080(8) -0.0023(11) -0.0012(5)
 O7 O 0.0086(9) 0.0153(15) 0.0104(19) 0.0077(8) -0.0006(6) -0.0013(11)
 O8 O 0.0124(11) 0.0249(16) 0.013(2) 0.0124(8) 0.0003(6) 0.0006(13)
loop_
 _geom_bond_atom_site_label_1
 _geom_bond_atom_site_label_2
 _geom_bond_site_symmetry_1
 _geom_bond_site_symmetry_2
 _geom_bond_distance
 _geom_bond_publ_flag
  X T . . 3.349(2) ?
  X T . 2_555 3.3489(18) ?
  X T . 3_555 3.3489(18) ?
  X T . 4_555 3.349(2) ?
  X T . 5_555 3.3489(18) ?
  X T . 6_555 3.3489(18) ?
  X Y . . 3.394(3) ?
  X Y . 2_555 3.394(3) ?
  X Y . 3_555 3.394(3) ?
  X O4 . . 2.508(4) ?
  X O4 . 2_555 2.508(4) ?
  X O4 . 3_555 2.508(4) ?
  X O6 . . 2.752(3) ?
  X O6 . 2_555 2.752(4) ?
  X O6 . 3_555 2.752(3) ?
  X O7 . 7_445 2.612(3) ?
  X O7 . 8_555 2.612(3) ?
  X O7 . 9_455 2.612(4) ?
  T O1 . 5_555 1.593(3) ?
  T O2 . 5_555 1.590(2) ?
  T O6 . 3_555 1.622(4) ?
  T O7 . 8_555 1.635(4) ?
  Z Z . 8_555 2.9065(19) ?
  Z Z . 15_554 2.906(2) ?
  Z Y . . 2.9613(19) ?
  B O3 . . 1.357(5) ?
  B O3 . 5_555 1.357(3) ?
  B O4 . 2_555 1.377(5) ?
  Y Y . 2_555 2.9098(19) ?
  Y Y . 3_555 2.910(2) ?
  Y O1 . 3_556 1.957(3) ?
  Y O1 . 5_556 1.957(2) ?
  Y O4 . . 1.967(3) ?
  Y O4 . 2_555 1.967(3) ?
  Y O5 . . 1.974(4) ?
  Y O8 . 8_555 2.110(4) ?
loop_
 _geom_angle_atom_site_label_1
 _geom_angle_atom_site_label_2
 _geom_angle_atom_site_label_3
 _geom_angle_site_symmetry_1
 _geom_angle_site_symmetry_2
 _geom_angle_site_symmetry_3
 _geom_angle
 _geom_angle_publ_flag
  T X T . . 2_555 102.22(5) ?
  T X T . . 3_555 102.22(5) ?
  T X T . . 4_555 127.99(8) ?
  T X T . . 5_555 54.34(3) ?
  T X T . . 6_555 52.48(3) ?
  T X Y . . . 89.63(3) ?
  T X Y . . 2_555 112.65(4) ?
  T X Y . . 3_555 139.83(6) ?
  T X O4 . . . 109.02(4) ?
  T X O4 . . 2_555 79.90(6) ?
  T X O4 . . 3_555 147.53(7) ?
  T X O6 . . . 126.08(9) ?
  T X O6 . . 2_555 81.04(7) ?
  T X O6 . . 3_555 28.76(9) ?
  T X O7 . . 7_445 127.31(10) ?
  T X O7 . . 8_555 28.57(9) ?
  T X O7 . . 9_455 82.87(7) ?
  T X T 2_555 . 3_555 102.22(5) ?
  T X T 2_555 . 4_555 54.34(3) ?
  T X T 2_555 . 5_555 52.48(3) ?
  T X T 2_555 . 6_555 127.99(8) ?
  T X Y 2_555 . . 139.83(6) ?
  T X Y 2_555 . 2_555 89.63(3) ?
  T X Y 2_555 . 3_555 112.65(4) ?
  T X O4 2_555 . . 147.53(7) ?
  T X O4 2_555 . 2_555 109.02(5) ?
  T X O4 2_555 . 3_555 79.90(7) ?
  T X O6 2_555 . . 28.76(5) ?
  T X O6 2_555 . 2_555 126.08(9) ?
  T X O6 2_555 . 3_555 81.04(9) ?
  T X O7 2_555 . 7_445 82.87(7) ?
  T X O7 2_555 . 8_555 127.31(11) ?
  T X O7 2_555 . 9_455 28.57(5) ?
  T X T 3_555 . 4_555 52.48(3) ?
  T X T 3_555 . 5_555 127.99(8) ?
  T X T 3_555 . 6_555 54.34(3) ?
  T X Y 3_555 . . 112.65(4) ?
  T X Y 3_555 . 2_555 139.83(6) ?
  T X Y 3_555 . 3_555 89.63(3) ?
  T X O4 3_555 . . 79.90(6) ?
  T X O4 3_555 . 2_555 147.53(8) ?
  T X O4 3_555 . 3_555 109.02(5) ?
  T X O6 3_555 . . 81.04(7) ?
  T X O6 3_555 . 2_555 28.76(5) ?
  T X O6 3_555 . 3_555 126.08(11) ?
  T X O7 3_555 . 7_445 28.57(6) ?
  T X O7 3_555 . 8_555 82.87(9) ?
  T X O7 3_555 . 9_455 127.31(10) ?
  T X T 4_555 . 5_555 102.22(5) ?
  T X T 4_555 . 6_555 102.22(5) ?
  T X Y 4_555 . . 139.83(5) ?
  T X Y 4_555 . 2_555 112.65(3) ?
  T X Y 4_555 . 3_555 89.63(3) ?
  T X O4 4_555 . . 109.02(4) ?
  T X O4 4_555 . 2_555 147.53(7) ?
  T X O4 4_555 . 3_555 79.90(6) ?
  T X O6 4_555 . . 28.76(6) ?
  T X O6 4_555 . 2_555 81.04(6) ?
  T X O6 4_555 . 3_555 126.08(10) ?
  T X O7 4_555 . 7_445 28.57(6) ?
  T X O7 4_555 . 8_555 127.31(11) ?
  T X O7 4_555 . 9_455 82.87(6) ?
  T X T 5_555 . 6_555 102.22(5) ?
  T X Y 5_555 . . 112.65(3) ?
  T X Y 5_555 . 2_555 89.63(3) ?
  T X Y 5_555 . 3_555 139.83(6) ?
  T X O4 5_555 . . 147.53(7) ?
  T X O4 5_555 . 2_555 79.90(7) ?
  T X O4 5_555 . 3_555 109.02(5) ?
  T X O6 5_555 . . 81.04(6) ?
  T X O6 5_555 . 2_555 126.08(10) ?
  T X O6 5_555 . 3_555 28.76(8) ?
  T X O7 5_555 . 7_445 127.31(10) ?
  T X O7 5_555 . 8_555 82.87(10) ?
  T X O7 5_555 . 9_455 28.57(6) ?
  T X Y 6_555 . . 89.63(3) ?
  T X Y 6_555 . 2_555 139.83(5) ?
  T X Y 6_555 . 3_555 112.65(4) ?
  T X O4 6_555 . . 79.90(6) ?
  T X O4 6_555 . 2_555 109.02(5) ?
  T X O4 6_555 . 3_555 147.53(8) ?
  T X O6 6_555 . . 126.08(10) ?
  T X O6 6_555 . 2_555 28.76(5) ?
  T X O6 6_555 . 3_555 81.04(9) ?
  T X O7 6_555 . 7_445 82.87(6) ?
  T X O7 6_555 . 8_555 28.57(9) ?
  T X O7 6_555 . 9_455 127.31(10) ?
  Y X Y . . 2_555 50.77(5) ?
  Y X Y . . 3_555 50.77(5) ?
  Y X O4 . . . 35.03(6) ?
  Y X O4 . . 2_555 35.03(7) ?
  Y X O4 . . 3_555 70.56(9) ?
  Y X O6 . . . 139.37(10) ?
  Y X O6 . . 2_555 93.44(7) ?
  Y X O6 . . 3_555 93.44(8) ?
  Y X O7 . . 7_445 119.86(9) ?
  Y X O7 . . 8_555 77.87(8) ?
  Y X O7 . . 9_455 119.86(8) ?
  Y X Y 2_555 . 3_555 50.77(5) ?
  Y X O4 2_555 . . 70.56(9) ?
  Y X O4 2_555 . 2_555 35.03(6) ?
  Y X O4 2_555 . 3_555 35.03(6) ?
  Y X O6 2_555 . . 93.44(8) ?
  Y X O6 2_555 . 2_555 139.37(10) ?
  Y X O6 2_555 . 3_555 93.44(8) ?
  Y X O7 2_555 . 7_445 119.86(8) ?
  Y X O7 2_555 . 8_555 119.86(9) ?
  Y X O7 2_555 . 9_455 77.87(8) ?
  Y X O4 3_555 . . 35.03(6) ?
  Y X O4 3_555 . 2_555 70.56(9) ?
  Y X O4 3_555 . 3_555 35.03(7) ?
  Y X O6 3_555 . . 93.44(7) ?
  Y X O6 3_555 . 2_555 93.44(8) ?
  Y X O6 3_555 . 3_555 139.37(10) ?
  Y X O7 3_555 . 7_445 77.87(8) ?
  Y X O7 3_555 . 8_555 119.86(10) ?
  Y X O7 3_555 . 9_455 119.86(9) ?
  O4 X O4 . . 2_555 69.08(10) ?
  O4 X O4 . . 3_555 69.08(10) ?
  O4 X O6 . . . 124.26(7) ?
  O4 X O6 . . 2_555 68.81(10) ?
  O4 X O6 . . 3_555 124.26(9) ?
  O4 X O7 . . 7_445 85.16(9) ?
  O4 X O7 . . 8_555 85.16(10) ?
  O4 X O7 . . 9_455 148.43(13) ?
  O4 X O4 2_555 . 3_555 69.08(10) ?
  O4 X O6 2_555 . . 124.26(9) ?
  O4 X O6 2_555 . 2_555 124.26(8) ?
  O4 X O6 2_555 . 3_555 68.81(9) ?
  O4 X O7 2_555 . 7_445 148.43(13) ?
  O4 X O7 2_555 . 8_555 85.16(9) ?
  O4 X O7 2_555 . 9_455 85.16(9) ?
  O4 X O6 3_555 . . 68.81(9) ?
  O4 X O6 3_555 . 2_555 124.26(9) ?
  O4 X O6 3_555 . 3_555 124.26(10) ?
  O4 X O7 3_555 . 7_445 85.16(8) ?
  O4 X O7 3_555 . 8_555 148.43(13) ?
  O4 X O7 3_555 . 9_455 85.16(9) ?
  O6 X O6 . . 2_555 109.24(9) ?
  O6 X O6 . . 3_555 109.24(10) ?
  O6 X O7 . . 7_445 56.60(8) ?
  O6 X O7 . . 8_555 142.76(14) ?
  O6 X O7 . . 9_455 56.60(7) ?
  O6 X O6 2_555 . 3_555 109.24(11) ?
  O6 X O7 2_555 . 7_445 56.60(7) ?
  O6 X O7 2_555 . 8_555 56.60(10) ?
  O6 X O7 2_555 . 9_455 142.76(14) ?
  O6 X O7 3_555 . 7_445 142.76(14) ?
  O6 X O7 3_555 . 8_555 56.60(13) ?
  O6 X O7 3_555 . 9_455 56.60(10) ?
  O7 X O7 7_445 . 8_555 111.33(11) ?
  O7 X O7 7_445 . 9_455 111.33(9) ?
  O7 X O7 8_555 . 9_455 111.33(12) ?
  X T O1 . . 5_555 114.49(8) ?
  X T O2 . . 5_555 134.09(9) ?
  X T O6 . . 3_555 54.72(11) ?
  X T O7 . . 8_555 49.82(12) ?
  O1 T O2 5_555 . 5_555 111.30(11) ?
  O1 T O6 5_555 . 3_555 111.81(17) ?
  O1 T O7 5_555 . 8_555 110.80(16) ?
  O2 T O6 5_555 . 3_555 110.08(15) ?
  O2 T O7 5_555 . 8_555 109.70(15) ?
  O6 T O7 3_555 . 8_555 102.84(17) ?
  Z Z Z 8_555 . 15_554 118.21(4) ?
  Z Z Y 8_555 . . 122.86(6) ?
  Z Z Y 15_554 . . 113.63(5) ?
  O3 B O3 . . 5_555 118.8(3) ?
  O3 B O4 . . 2_555 120.56(18) ?
  O3 B O4 5_555 . 2_555 120.6(4) ?
  X Y Z . . . 110.34(5) ?
  X Y Z . . 6_555 110.34(5) ?
  X Y Y . . 2_555 64.62(5) ?
  X Y Y . . 3_555 64.62(4) ?
  X Y O1 . . 3_556 133.84(8) ?
  X Y O1 . . 5_556 133.84(10) ?
  X Y O4 . . . 47.05(9) ?
  X Y O4 . . 2_555 47.05(9) ?
  X Y O5 . . . 91.99(17) ?
  X Y O8 . . 8_555 94.17(12) ?
  Z Y Z . . 6_555 73.31(4) ?
  Z Y Y . . 2_555 113.24(5) ?
  Z Y Y . . 3_555 172.56(6) ?
  Z Y O1 . . 3_556 93.28(7) ?
  Z Y O1 . . 5_556 38.70(8) ?
  Z Y O4 . . . 138.69(11) ?
  Z Y O4 . . 2_555 83.57(5) ?
  Z Y O5 . . . 135.28(10) ?
  Z Y O8 . . 8_555 41.72(12) ?
  Z Y Y 6_555 . 2_555 172.56(5) ?
  Z Y Y 6_555 . 3_555 113.24(5) ?
  Z Y O1 6_555 . 3_556 38.70(9) ?
  Z Y O1 6_555 . 5_556 93.28(11) ?
  Z Y O4 6_555 . . 83.57(7) ?
  Z Y O4 6_555 . 2_555 138.69(11) ?
  Z Y O5 6_555 . . 135.28(10) ?
  Z Y O8 6_555 . 8_555 41.72(13) ?
  Y Y Y 2_555 . 3_555 60.00(5) ?
  Y Y O1 2_555 . 3_556 140.67(10) ?
  Y Y O1 2_555 . 5_556 94.12(11) ?
  Y Y O4 2_555 . . 89.04(7) ?
  Y Y O4 2_555 . 2_555 42.29(8) ?
  Y Y O5 2_555 . . 42.51(11) ?
  Y Y O8 2_555 . 8_555 141.41(14) ?
  Y Y O1 3_555 . 3_556 94.12(7) ?
  Y Y O1 3_555 . 5_556 140.67(11) ?
  Y Y O4 3_555 . . 42.29(8) ?
  Y Y O4 3_555 . 2_555 89.04(6) ?
  Y Y O5 3_555 . . 42.51(11) ?
  Y Y O8 3_555 . 8_555 141.41(13) ?
  O1 Y O1 3_556 . 5_556 89.12(12) ?
  O1 Y O4 3_556 . . 89.07(10) ?
  O1 Y O4 3_556 . 2_555 176.68(9) ?
  O1 Y O5 3_556 . . 98.23(15) ?
  O1 Y O8 3_556 . 8_555 77.47(15) ?
  O1 Y O4 5_556 . . 176.68(13) ?
  O1 Y O4 5_556 . 2_555 89.07(12) ?
  O1 Y O5 5_556 . . 98.23(15) ?
  O1 Y O8 5_556 . 8_555 77.47(14) ?
  O4 Y O4 . . 2_555 92.60(12) ?
  O4 Y O5 . . . 84.79(14) ?
  O4 Y O8 . . 8_555 99.42(14) ?
  O4 Y O5 2_555 . . 84.79(14) ?
  O4 Y O8 2_555 . 8_555 99.42(15) ?
  O5 Y O8 . . 8_555 173.8(2) ?
  T O1 Y 5_555 . 2_554 124.12(13) ?
  X O4 B . . 3_555 121.0(3) ?
  X O4 Y . . . 97.92(9) ?
  X O4 Y . . 3_555 97.92(9) ?
  B O4 Y 3_555 . . 119.6(2) ?
  B O4 Y 3_555 . 3_555 119.60(19) ?
  Y O4 Y . . 3_555 95.41(15) ?
  Y O5 Y . . 2_555 95.0(2) ?
  Y O5 Y . . 3_555 95.0(2) ?
  Y O5 Y 2_555 . 3_555 95.0(2) ?
  X O6 T . . 2_555 96.52(8) ?
  X O6 T . . 4_555 96.52(15) ?
  T O6 T 2_555 . 4_555 141.1(2) ?
  X O7 T 13_554 . 15_554 101.61(8) ?
  X O7 T 13_554 . 16_554 101.61(16) ?
  T O7 T 15_554 . 16_554 129.8(2) ?
loop_
 _refln_index_h
 _refln_index_k
 _refln_index_l
 _refln_F_squared_calc
 _refln_F_squared_meas
 _refln_F_squared_sigma
 _refln_observed_status
  -1   2   0    46.61    12.75     2.66 o
   0   3   0  8111.26  7763.88   178.07 o
  -3   3   0  8113.62  7497.59   177.99 o
  -1   5   0  8413.16  8942.50   153.74 o
  -4   5   0  8395.14  8605.52   154.51 o
  -3   6   0  1188.59  1255.20    64.91 o
   0   6   0  6350.65  5783.68   173.47 o
  -6   6   0  6324.68  5648.32   172.03 o
  -2   7   0   902.92   803.61    39.13 o
  -5   7   0   885.35   823.23    55.24 o
  -4   8   0 10555.10 11066.30   290.57 o
  -1   8   0  1439.79  1410.57    46.82 o
  -7   8   0  1450.97  1378.55    57.26 o
  -3   9   0   600.87   757.91    58.47 o
  -6   9   0   590.65   788.14    60.26 o
   0   9   0 25772.70 25457.30   591.66 o
  -9   9   0 25690.60 26185.60   595.80 o
  -5  10   0 82696.50 78721.70  1120.17 o
  -2  10   0 10882.30 11322.60   226.16 o
  -8  10   0 10941.80 10812.00   223.30 o
  -4  11   0 17764.70 17522.50   452.32 o
  -7  11   0 17777.40 17631.40   319.22 o
  -1  11   0 43524.90 43502.90   670.22 o
 -10  11   0 43553.90 44045.50   961.24 o
  -6  12   0 38619.30 36351.20   583.14 o
  -3  12   0 17208.00 17123.60   325.99 o
  -9  12   0 17182.10 17116.90   324.88 o
  -5  13   0  3944.83  3782.64   124.18 o
  -8  13   0  3930.92  3652.89   121.72 o
  -2  13   0  3382.39  3265.73   164.36 o
 -11  13   0  3401.26  3824.81   176.55 o
  -7  14   0  1152.22   933.29    60.38 o
  -4  14   0   873.98   839.16    60.44 o
 -10  14   0   871.65   981.55    60.44 o
  -1  14   0   610.26   630.36    49.72 o
 -13  14   0   611.58   601.40    70.73 o
  -6  15   0  4857.55  4909.67   158.47 o
  -9  15   0  4875.25  4974.03   155.95 o
  -3  15   0  1028.09  1102.57    95.74 o
 -12  15   0  1024.94  1087.23    98.24 o
   0  15   0 19528.90 19664.60   553.81 o
  -8  16   0  4053.01  4092.67   146.71 o
  -5  16   0  4581.93  4853.76   161.32 o
 -11  16   0  4572.16  4358.15   153.11 o
  -2  16   0   904.15   869.19    90.46 o
 -14  16   0   903.41   761.24    87.88 o
  -7  17   0   375.49   317.06    40.24 o
 -10  17   0   370.39   359.65    42.75 o
  -4  17   0  1677.38  1645.81   130.61 o
 -13  17   0  1676.19  1630.04   133.02 o
  -1  17   0 10658.90 10770.20   388.43 o
 -16  17   0 10646.50 10906.80   392.33 o
  -9  18   0  1123.28  1029.21    75.44 o
  -6  18   0   237.43   141.49    30.28 o
 -12  18   0   228.10   225.36    32.95 o
  -3  18   0  4178.69  4189.41   224.77 o
 -15  18   0  4177.52  4145.74   227.41 o
  -8  19   0  3673.28  3548.27   152.85 o
 -11  19   0  3674.75  3714.31   153.11 o
  -5  19   0   507.41   567.95    81.58 o
 -14  19   0   501.57   442.33    72.83 o
  -2  19   0   142.42    19.97    17.29 <
 -17  19   0   139.89    16.39    16.30 <
 -10  20   0  9926.98  9852.09   277.51 o
  -7  20   0  2658.01  2601.26   133.26 o
 -13  20   0  2657.82  2556.31   134.09 o
  -4  20   0  2619.85  2596.70   187.56 o
 -16  20   0  2628.87  2668.46   191.98 o
  -2   3   1 13532.30 12574.00   267.31 o
  -1   3  -1 13445.00 13119.90   279.90 o
   0   4  -1  1744.63  2242.31    54.77 o
  -1   4   1  3726.82  4239.87   125.33 o
  -3   5   1  5708.49  5819.65   160.65 o
  -2   5  -1  5668.69  5919.77   159.74 o
  -5   6   1 18408.40 19010.00   241.12 o
  -1   6  -1 18596.70 18621.60   296.77 o
  -2   6   1  3459.25  3019.14   112.04 o
  -7   7   1  2365.17  2615.80    76.89 o
   0   7  -1  2349.79  2719.07   107.08 o
  -4   7   1 16252.90 17720.10   410.26 o
  -3   7  -1 16357.90 16582.00   389.81 o
  -1   7   1 12236.10 12800.30   319.22 o
  -6   7  -1 12296.20 11743.10   316.01 o
  -6   8   1 13240.20 12869.70   189.13 o
  -2   8  -1 13183.60 13598.30   190.99 o
  -3   8   1  1628.58  1786.43    65.11 o
  -5   8  -1  1629.48  1768.67    64.42 o
  -8   9   1  5889.91  6239.49   117.29 o
  -1   9  -1  5856.31  6234.31   140.90 o
  -5   9   1  1990.38  2174.86    76.09 o
  -4   9  -1  1964.15  2049.37    74.58 o
  -2   9   1 27129.90 28645.80   638.98 o
  -7   9  -1 27055.30 27922.60   642.30 o
 -10  10   1 73086.30 71483.30  1446.90 o
   0  10  -1 73201.30 70692.30  1025.44 o
  -7  10   1  2804.70  2721.49   128.01 o
  -3  10  -1  2798.21  2743.42    72.11 o
  -4  10   1 10041.50 10343.60   300.48 o
  -6  10  -1 10116.30 10121.90   208.33 o
  -1  10   1  6681.26  6607.63   228.15 o
  -9  11   1  2094.67  2115.72   114.51 o
  -2  11  -1  2098.56  2067.96    81.27 o
  -6  11   1 18513.60 17496.60   321.98 o
  -5  11  -1 18605.20 18705.00   462.06 o
  -3  11   1  5438.41  5390.89   206.95 o
  -8  11  -1  5405.50  5675.66   210.24 o
 -11  12   1 16559.00 16153.20   250.64 o
  -1  12  -1 16620.00 15722.50   307.76 o
  -8  12   1  4326.64  4364.62   129.67 o
  -4  12  -1  4309.67  4378.57   129.30 o
  -5  12   1  5823.61  5627.35   154.68 o
  -7  12  -1  5757.32  5840.88   155.29 o
  -2  12   1  5575.79  5640.12   221.93 o
 -13  13   1  3614.44  3416.99   166.67 o
   0  13  -1  3628.84  3555.46   170.76 o
 -10  13   1  8316.56  8245.30   200.61 o
  -3  13  -1  8313.05  8374.83   161.88 o
  -7  13   1  1669.00  1588.13    77.09 o
  -6  13  -1  1656.32  1533.87    75.57 o
  -4  13   1  1922.68  1862.03   118.82 o
  -9  13  -1  1934.50  1920.81   121.67 o
  -1  13   1     9.51    -0.39     2.94 <
 -12  13  -1    11.21     2.38     4.23 <
 -12  14   1  6687.01  6735.50   182.29 o
  -2  14  -1  6650.53  6497.00   145.35 o
  -9  14   1  4388.17  4057.74   135.82 o
  -5  14  -1  4361.23  4371.42   138.38 o
  -6  14   1  1999.77  1915.68    90.32 o
  -8  14  -1  2021.93  1953.24    91.03 o
  -3  14   1  5185.47  5155.60   226.76 o
 -11  14  -1  5173.45  5410.15   228.43 o
 -14  15   1  1001.58   987.61    93.88 o
  -1  15  -1  1014.46  1025.00    65.52 o
 -11  15   1  8373.73  8509.23   217.35 o
  -4  15  -1  8418.80  8234.47   215.53 o
  -8  15   1   931.59   962.63    64.81 o
  -7  15  -1   937.94   951.04    63.83 o
  -5  15   1 11501.40 11245.30   269.43 o
 -10  15  -1 11559.90 11409.50   265.21 o
  -2  15   1  4248.87  4245.27   211.35 o
 -13  15  -1  4224.59  4608.10   217.27 o
 -16  16   1   901.89   965.26    95.03 o
   0  16  -1   931.58   944.81    90.54 o
 -13  16   1  5555.65  5580.19   175.74 o
  -3  16  -1  5547.32  5708.53   178.65 o
 -10  16   1  6484.92  6590.03   191.46 o
  -6  16  -1  6536.55  6621.90   192.64 o
  -7  16   1  7708.18  7546.48   210.44 o
  -9  16  -1  7734.12  7316.12   209.30 o
  -4  16   1  7828.76  8264.36   312.52 o
 -12  16  -1  7883.11  7835.04   312.66 o
 -15  17   1   157.60    64.62    24.77 <
  -2  17  -1   154.20   169.45    29.70 o
 -12  17   1  1211.16  1185.68    77.15 o
  -5  17  -1  1192.74  1134.63    76.46 o
  -9  17   1  5361.43  5122.37   171.71 o
  -8  17  -1  5340.90  4970.67   169.34 o
  -6  17   1  9670.32 10171.60   265.12 o
 -11  17  -1  9733.22  9923.89   258.75 o
  -3  17   1  2633.10  2872.31   175.07 o
 -14  17  -1  2653.64  2646.01   169.76 o
 -17  18   1  1442.51  1406.75   125.27 o
  -1  18  -1  1438.35  1398.37    87.20 o
 -14  18   1  1285.51  1272.83    82.21 o
  -4  18  -1  1292.23  1326.97    86.70 o
 -11  18   1  2942.68  2934.49   129.48 o
  -7  18  -1  2964.37  2847.13   129.59 o
  -8  18   1  2712.71  2422.56   119.32 o
 -10  18  -1  2692.27  2528.44   120.35 o
  -5  18   1   770.90   722.85    87.55 o
 -13  18  -1   767.86   668.59    89.76 o
  -2  18   1  3017.87  2931.22   193.42 o
   0  19  -1  2831.00  2790.45   186.07 o
 -16  19   1   403.45   444.15    70.09 o
  -3  19  -1   392.73   396.56    65.69 o
 -13  19   1  4189.52  3788.83   156.68 o
  -6  19  -1  4156.89  3793.74   157.36 o
 -10  19   1   889.34   945.19    75.27 o
  -9  19  -1   879.13   868.05    72.47 o
  -7  19   1  1507.61  1279.79    89.22 o
 -12  19  -1  1504.70  1551.94   137.12 o
  -4  19   1  3973.56  3986.46   231.47 o
 -15  19  -1  3972.80  4313.32   239.10 o
 -18  20   1  3539.69  3103.45   204.19 o
  -2  20  -1  3534.57  3553.22   215.78 o
 -15  20   1  4877.13  4835.19   258.75 o
  -5  20  -1  4880.87  4929.55   256.46 o
 -12  20   1  1355.47  1153.47    85.80 o
  -8  20  -1  1334.24  1296.98    92.53 o
  -9  20   1  1156.21  1044.39    83.99 o
 -11  20  -1  1175.66  1156.24    84.70 o
  -6  20   1  3402.34  3545.86   224.38 o
 -14  20  -1  3430.57  3610.41   227.01 o
  -3   4   2  4691.77  4707.91    85.45 o
  -1   4  -2  4739.80  4895.08    93.48 o
  -5   5   2 24486.90 24581.50   478.14 o
   0   5  -2 24583.50 23505.40   474.97 o
  -2   5   2 11998.20 12629.50   304.22 o
  -3   5  -2 11913.10 13044.00   271.40 o
  -4   6   2  8692.25  9271.77   130.14 o
  -2   6  -2  8657.79  9193.84   165.42 o
  -6   7   2  2293.68  2112.60    53.26 o
  -1   7  -2  2310.16  2273.56    64.86 o
  -3   7   2 47381.60 49775.40  1016.94 o
  -4   7  -2 47619.70 49536.00   955.68 o
  -8   8   2  2948.52  3033.13    87.20 o
   0   8  -2  2918.41  3151.26    87.94 o
  -5   8   2  1005.58   972.92    65.41 o
  -3   8  -2  1013.17   936.28    29.22 o
  -2   8   2  7627.45  7464.30   235.45 o
  -6   8  -2  7562.91  7660.96   236.68 o
  -7   9   2 15380.40 15593.00   222.14 o
  -2   9  -2 15325.30 15901.80   273.15 o
  -4   9   2  9255.64 10311.70   294.12 o
  -9  10   2  1350.20  1266.85    47.71 o
  -6  10   2 15504.60 15036.20   280.47 o
  -4  10  -2 15526.40 15337.00   221.39 o
  -3  10   2   791.68   859.99    70.36 o
  -7  10  -2   790.66   867.72    73.35 o
 -11  11   2   768.33   688.54    45.41 o
   0  11  -2   765.91   672.17    60.32 o
  -8  11   2 10544.60 10806.70   225.44 o
  -3  11  -2 10565.40 10867.00   177.74 o
  -5  11   2 12085.40 11623.10   341.72 o
  -6  11  -2 12127.20 12771.00   363.90 o
  -2  11   2   733.48   643.11    68.68 o
  -9  11  -2   744.79   848.21    72.74 o
 -10  12   2  3450.38  3409.19    88.71 o
  -2  12  -2  3408.71  3362.45    86.70 o
  -7  12   2  4677.20  4390.00   192.65 o
  -5  12  -2  4646.54  4755.56   106.01 o
  -4  12   2  9823.93 10129.70   322.93 o
  -8  12  -2  9827.23 10059.90   322.09 o
 -12  13   2  4912.12  4942.20   116.36 o
  -1  13  -2  4898.48  4616.27   117.86 o
  -9  13   2  4909.22  4566.71   139.11 o
  -4  13  -2  4876.88  4783.86   111.18 o
  -6  13   2   504.31   518.33    43.17 o
  -7  13  -2   505.95   442.66    39.43 o
  -3  13   2  2262.70  2458.92   140.98 o
 -10  13  -2  2246.61  2341.74   142.45 o
 -14  14   2  2899.92  2973.53   158.81 o
   0  14  -2  2905.99  2802.02   111.63 o
 -11  14   2  1501.62  1581.03    80.49 o
  -3  14  -2  1480.25  1590.62    62.71 o
  -8  14   2 11650.20 11410.90   257.51 o
  -6  14  -2 11736.20 11566.40   256.92 o
  -5  14   2  4713.50  4583.41   212.52 o
  -9  14  -2  4694.78  5171.98   223.97 o
 -13  15   2  2033.66  2032.67    75.65 o
  -2  15  -2  2044.07  2019.18    75.77 o
 -10  15   2  3140.29  2957.78   117.43 o
  -5  15  -2  3139.54  3154.66    93.51 o
  -7  15   2  4481.90  4609.45   152.44 o
  -8  15  -2  4483.80  4218.77   148.09 o
  -4  15   2  5178.88  4686.82   226.69 o
 -11  15  -2  5184.08  5379.19   238.09 o
 -15  16   2  2395.87  2318.06   102.52 o
  -1  16  -2  2417.28  2324.08    85.98 o
 -12  16   2  5978.57  6120.97   181.30 o
  -4  16  -2  5988.72  5811.03   141.46 o
  -9  16   2  2475.78  2534.30   112.87 o
  -7  16  -2  2469.50  2556.72   113.64 o
  -6  16   2  6003.84  6424.80   268.60 o
 -10  16  -2  6016.00  5795.22   267.20 o
  -3  16   2 10680.40 10576.10   381.98 o
 -13  16  -2 10674.80 10871.00   389.30 o
 -17  17   2   257.50   334.85    53.57 o
   0  17  -2   262.11   260.28    48.64 o
 -14  17   2  3137.99  3123.12   129.09 o
  -3  17  -2  3167.96  2920.51    98.96 o
 -11  17   2   654.59   620.00    56.43 o
  -6  17  -2   659.38   630.33    56.11 o
  -8  17   2  2908.72  2695.73   124.52 o
  -9  17  -2  2894.52  2941.15   127.07 o
  -5  17   2   847.26   805.71    94.08 o
 -12  17  -2   833.46   921.21    99.15 o
 -16  18   2  4139.13  4194.20   223.15 o
  -2  18  -2  4159.57  4007.63   124.22 o
 -13  18   2  3748.95  3579.03   144.66 o
  -5  18  -2  3781.51  3812.53   151.23 o
 -10  18   2  1122.55  1048.25    74.85 o
  -8  18  -2  1111.42  1000.99    73.89 o
  -7  18   2  2551.24  2635.55   176.60 o
 -11  18  -2  2547.73  2813.12   186.87 o
  -4  18   2   555.57   481.20    74.80 o
 -14  18  -2   549.50   572.74    84.15 o
 -18  19   2  1539.03  1401.30   127.40 o
  -1  19  -2  1518.96  1583.11    93.36 o
 -15  19   2   523.31   481.68    52.16 o
  -4  19  -2   515.03   263.40    38.55 o
 -12  19   2  1458.25  1572.22    96.66 o
  -7  19  -2  1449.04  1382.32    92.76 o
  -9  19   2   871.70   796.87    68.84 o
 -10  19  -2   879.60   823.39    73.52 o
  -6  19   2  4776.70  4897.82   256.67 o
 -13  19  -2  4749.06  4385.90   249.49 o
   0  20  -2  4988.30  5025.75   261.46 o
 -17  20   2   378.44   347.30    65.39 o
  -3  20  -2   376.16   356.58    43.77 o
 -14  20   2  1391.46  1363.29    93.61 o
  -6  20  -2  1389.79  1372.94    94.17 o
 -11  20   2  1068.99  1063.00    82.41 o
  -9  20  -2  1075.21   867.72    78.33 o
  -2  21  -2   710.76   796.96    92.73 o
  -2   4   3 17043.70 17128.60   351.10 o
  -4   5   3   390.97   357.08    21.08 o
  -1   5  -3   386.78   431.39    23.74 o
  -6   6   3 17744.70 18006.90   411.78 o
   0   6  -3 17764.60 18001.30   413.66 o
  -3   6   3 11078.70 10867.20   187.26 o
  -3   6  -3 11167.20 10614.00   238.80 o
  -5   7   3   867.57   852.39    39.04 o
  -2   7  -3   871.71   820.21    29.30 o
  -5   7  -3   563.24   555.26    29.14 o
  -7   8   3  4344.64  4353.31   102.49 o
  -1   8  -3  4324.83  4446.22    81.30 o
  -4   8   3   548.99   520.71    52.24 o
  -4   8  -3   569.20   522.62    23.24 o
  -9   9   3  6411.20  6414.29   145.13 o
   0   9  -3  6475.91  6381.97   198.41 o
  -6   9   3 14785.80 15215.00   210.13 o
  -3   9  -3 14808.10 15046.60   247.33 o
  -6   9  -3  4016.54  3845.01    77.76 o
  -8  10   3  1378.64  1348.01    41.09 o
  -2  10  -3  1361.36  1333.25    45.83 o
  -5  10   3 12020.10 12471.60   355.21 o
  -5  10  -3 12016.30 12199.60   178.65 o
 -10  11   3 25663.90 24869.50   338.64 o
  -1  11  -3 25547.00 24641.30   401.78 o
  -7  11   3  2866.95  2821.75   138.82 o
  -4  11  -3  2838.73  2754.59    71.45 o
  -4  11   3  2630.56  2567.04   138.64 o
  -7  11  -3  2610.21  2557.13    82.43 o
 -12  12   3  1897.90  1953.95    81.30 o
   0  12  -3  1923.80  2014.05    83.45 o
  -9  12   3  8763.01  9043.53   158.31 o
  -3  12  -3  8748.67  8694.93   156.13 o
  -6  12   3   502.79   409.79    54.10 o
  -6  12  -3   491.87   495.67    35.25 o
 -11  13   3  1615.20  1564.43    59.32 o
  -2  13  -3  1629.95  1568.58    58.52 o
  -8  13   3   722.87   650.88    48.82 o
  -5  13  -3   709.64   664.28    35.53 o
  -5  13   3  5186.58  5604.04   231.00 o
  -8  13  -3  5167.63  5210.80   224.67 o
 -13  14   3  1002.45   965.98    48.61 o
  -1  14  -3   992.78   996.05    42.67 o
 -10  14   3     1.72     0.03     4.13 <
  -4  14  -3     2.20     1.24     3.48 <
  -7  14   3  7938.55  8367.14   301.45 o
  -7  14  -3  8016.55  8324.88   192.42 o
  -4  14   3  1624.86  1612.52   122.51 o
 -15  15   3  8625.65  8767.31   312.71 o
   0  15  -3  8578.36  9045.94   225.11 o
 -12  15   3  4448.70  4276.77   143.40 o
  -3  15  -3  4453.10  4388.62    98.02 o
  -9  15   3 10286.00 10198.50   248.84 o
  -6  15  -3 10294.10 10562.60   192.29 o
  -6  15   3  7873.48  8014.07   305.55 o
  -9  15  -3  7832.43  7476.65   300.53 o
 -14  16   3  1454.24  1484.68    64.87 o
  -2  16  -3  1452.29  1470.09    56.39 o
 -11  16   3   563.11   558.11    50.86 o
  -5  16  -3   561.68   543.69    38.69 o
  -8  16   3  5659.60  5774.53   258.61 o
  -8  16  -3  5686.40  5596.99   259.67 o
  -5  16   3  9494.96  9732.71   367.95 o
 -11  16  -3  9454.29 10050.00   366.98 o
 -16  17   3  3129.07  3356.95   106.25 o
  -1  17  -3  3122.09  3221.91    91.20 o
 -13  17   3  2909.26  2974.92   125.19 o
  -4  17  -3  2935.88  2819.53    94.47 o
 -10  17   3  2834.84  2907.23   125.74 o
  -7  17  -3  2857.45  2832.26    93.56 o
  -7  17   3  4119.85  4437.83   228.06 o
 -10  17  -3  4138.93  4068.93   225.00 o
 -18  18   3  2910.56  3126.75   183.96 o
   0  18  -3  2912.60  2968.65   176.84 o
 -15  18   3  1030.95  1042.21    74.19 o
  -3  18  -3  1041.40  1052.94    58.71 o
 -12  18   3  6774.98  6873.63   209.94 o
  -6  18  -3  6751.30  6859.11   162.95 o
  -9  18   3  7397.22  7916.75   329.29 o
  -9  18  -3  7369.99  8039.03   337.46 o
  -6  18   3  1293.63  1429.06   129.94 o
 -12  18  -3  1282.44  1394.46   130.16 o
 -17  19   3  5048.80  5265.49   254.80 o
  -2  19  -3  5042.43  5172.48   145.24 o
 -14  19   3   484.64   435.33    51.28 o
  -5  19  -3   495.14   470.55    40.06 o
 -11  19   3  1845.80  1928.55   109.28 o
  -8  19  -3  1843.98  1954.36   110.79 o
  -8  19   3   411.20   350.24    64.89 o
 -11  19  -3   412.36   406.10    69.43 o
 -19  20   3  1612.35  1628.76   137.80 o
  -1  20  -3  1606.35  1584.84    95.35 o
 -16  20   3   500.56   508.41    80.64 o
  -4  20  -3   495.05   512.62    51.47 o
 -13  20   3   737.72   752.96    93.58 o
  -7  20  -3   733.72   740.63    89.22 o
  -3  21  -3  1759.59  1857.58   140.26 o
  -4   4   4 15536.40 15699.10   362.88 o
  -1   4   4  1241.71  1242.39    47.67 o
  -3   5   4  5687.22  5834.87   153.69 o
  -5   6   4 50475.70 50422.50   707.75 o
  -2   6   4  9803.61 10516.00   224.60 o
  -7   7   4  6856.90  6949.42   208.20 o
   0   7  -4  6846.11  6981.43   208.73 o
  -4   7   4 38027.90 35946.60   504.33 o
  -3   7  -4 38134.00 35934.20   729.94 o
  -6   8   4  6295.35  6032.68   136.76 o
  -2   8  -4  6310.42  6490.50   182.79 o
  -5   8  -4 12847.20 12426.80   269.91 o
  -8   9   4  3535.66  3554.33    81.03 o
  -1   9  -4  3544.47  3259.70   147.40 o
  -5   9   4 11829.80 12299.50   222.28 o
  -4   9  -4 11774.30 12305.60   293.70 o
  -7   9  -4  2487.09  2340.71    68.16 o
 -10  10   4 19631.90 20381.80   456.75 o
   0  10  -4 19553.20 19439.70   452.45 o
  -7  10   4  1981.79  2080.52    64.50 o
  -3  10  -4  2010.31  2085.89    57.83 o
  -6  10  -4  2760.35  2919.01    80.25 o
  -9  10  -4  3676.67  3641.35    93.01 o
  -9  11   4  1415.53  1354.62    43.63 o
  -2  11  -4  1427.22  1350.50    49.33 o
  -6  11   4  4820.26  4666.24   202.12 o
  -5  11  -4  4802.94  4954.21    97.19 o
  -8  11  -4  2476.24  2495.90    55.28 o
 -11  12   4  3385.76  3317.49    76.13 o
  -1  12  -4  3377.17  3408.66    77.56 o
  -8  12   4  1204.24  1085.65    46.37 o
  -4  12  -4  1215.14  1172.48    45.41 o
  -5  12   4  1601.73  1731.48   116.08 o
  -7  12  -4  1593.84  1541.29    48.65 o
 -13  13   4    11.86     1.41     1.58 <
   0  13  -4    10.16     7.69     9.57 <
 -10  13   4   314.36   268.96    22.97 o
  -3  13  -4   312.56   307.04    23.24 o
  -7  13   4  8939.91  9569.97   321.85 o
  -6  13  -4  8963.82  8798.25   153.50 o
  -9  13  -4  7072.52  6618.50   165.92 o
 -12  14   4  3519.39  3578.03    84.43 o
  -2  14  -4  3523.75  3636.69    85.36 o
  -9  14   4  1460.64  1370.20    76.74 o
  -5  14  -4  1463.33  1459.19    55.68 o
  -6  14   4  9788.61 10459.40   355.54 o
  -8  14  -4  9817.48 10047.50   169.41 o
 -14  15   4  2721.16  2727.31    75.38 o
  -1  15  -4  2730.86  2732.16    76.51 o
 -11  15   4  7265.83  7506.08   200.86 o
  -4  15  -4  7228.54  7431.70   151.03 o
  -8  15   4  1578.32  1529.44   122.04 o
  -7  15  -4  1566.98  1545.66    56.75 o
 -16  16   4 11743.30 11678.60   271.93 o
   0  16  -4 11716.00 11808.70   270.21 o
 -13  16   4  1268.25  1264.00    57.33 o
  -3  16  -4  1263.04  1239.97    49.94 o
 -10  16   4 15283.70 16183.40   345.51 o
  -6  16  -4 15206.90 16105.50   291.58 o
  -7  16   4  4620.60  4807.56   235.26 o
  -9  16  -4  4635.25  4596.65   138.19 o
 -15  17   4  2047.46  2067.24    79.81 o
  -2  17  -4  2055.47  1970.61    68.66 o
 -12  17   4  2427.37  2421.41   113.89 o
  -5  17  -4  2411.24  2625.29    86.25 o
  -9  17   4  1333.10  1455.28   125.13 o
  -8  17  -4  1337.42  1367.59    73.82 o
 -17  18   4  1869.77  1838.70    78.72 o
  -1  18  -4  1870.29  1891.19    70.12 o
 -14  18   4  2633.75  2735.81   122.73 o
  -4  18  -4  2665.45  2714.06    94.55 o
 -11  18   4   500.30   490.97    51.13 o
  -7  18  -4   502.05   531.60    49.01 o
  -8  18   4   891.75   909.19   103.38 o
 -10  18  -4   891.92   910.92   105.53 o
 -19  19   4  3468.07  3734.16   204.29 o
   0  19  -4  3465.20  3329.68   192.68 o
 -16  19   4    75.19    40.56    22.27 <
  -3  19  -4    77.11    49.03    13.25 o
 -13  19   4    19.79     1.10     6.56 <
  -6  19  -4    21.09    18.54    11.71 <
 -10  19   4   405.23   386.63    67.83 o
  -9  19  -4   407.93   351.57    70.46 o
 -18  20   4   261.91   191.48    47.06 o
  -2  20  -4   263.47   283.69    38.05 o
 -15  20   4  5174.20  4957.03   256.70 o
  -5  20  -4  5183.51  5155.68   165.80 o
  -8  20  -4    64.77    66.35    18.48 o
  -1  21  -4  3705.94  3672.31   211.16 o
  -4  21  -4  1169.76  1074.98    95.85 o
  -7  21  -4   889.17   845.36    79.31 o
  -3  22  -4  1080.40  1133.12   109.25 o
  -2   5   5  5663.52  5352.71   143.70 o
  -4   6   5   121.84   108.06    15.91 o
  -6   7   5  6486.58  6188.11   130.22 o
  -3   7   5  7008.09  7105.51   175.82 o
  -8   8   5  4817.60  4873.14   120.03 o
  -5   8   5    12.62     0.27     2.35 <
  -7   9   5  3248.31  2997.68    71.29 o
  -2   9  -5  3237.55  3526.01   133.16 o
  -4   9   5  2079.24  2022.33    76.02 o
  -9  10   5   938.48   917.86    34.97 o
  -1  10  -5   944.24  1021.09    53.01 o
  -6  10   5  5143.46  4967.88   121.31 o
  -4  10  -5  5157.27  5388.37   163.51 o
 -11  11   5  4151.43  4083.75   120.04 o
   0  11  -5  4103.77  4435.74   181.69 o
  -8  11   5   885.62   879.23    49.36 o
  -3  11  -5   876.32   836.95    50.67 o
  -6  11  -5 32394.50 31288.70   644.88 o
 -10  12   5   949.13   907.06    37.00 o
  -2  12  -5   943.02   910.08    54.40 o
  -7  12   5  5613.41  5779.28   234.66 o
  -5  12  -5  5593.06  6124.54   187.88 o
  -8  12  -5  3187.06  3433.54   104.87 o
 -12  13   5  3566.62  3644.95    83.04 o
  -1  13  -5  3572.18  3759.29   125.08 o
  -9  13   5  4162.57  4171.66   121.84 o
  -4  13  -5  4161.55  4182.71   127.10 o
  -7  13  -5  1997.87  1920.85    86.08 o
 -10  13  -5  6627.38  5861.38   148.29 o
 -14  14   5  3704.71  3669.60   124.14 o
   0  14  -5  3682.97  3841.43   187.72 o
 -11  14   5  2602.36  2593.29    68.98 o
  -3  14  -5  2592.34  2644.24    79.14 o
  -8  14   5  1777.67  1812.33   129.98 o
  -6  14  -5  1760.28  1797.48    60.57 o
  -9  14  -5  5157.31  4948.92   148.30 o
 -12  14  -5  1007.15   861.04    40.26 o
 -13  15   5   352.32   344.01    25.21 o
  -2  15  -5   350.80   347.19    28.08 o
 -10  15   5 18716.10 19453.70   550.79 o
  -5  15  -5 18812.20 19346.90   286.24 o
  -8  15  -5  3243.69  3292.17    82.77 o
 -11  15  -5   753.32   672.96    26.43 o
 -15  16   5  8398.75  8656.21   155.68 o
  -1  16  -5  8416.20  8801.96   180.62 o
 -12  16   5  6795.71  6510.84   193.92 o
  -4  16  -5  6813.96  7066.17   148.12 o
  -9  16   5  2349.85  2142.01   155.15 o
  -7  16  -5  2368.66  2442.46    74.27 o
 -10  16  -5  5212.66  4781.26   103.74 o
 -17  17   5  1745.78  1779.48    94.42 o
   0  17  -5  1732.26  1968.75    97.73 o
 -14  17   5  4398.45  4371.24   120.17 o
  -3  17  -5  4388.60  4527.35   119.26 o
 -11  17   5  5153.89  5427.59   256.46 o
  -6  17  -5  5190.16  5315.35   124.82 o
  -8  17   5   130.22   167.80    39.34 o
  -9  17  -5   128.98   117.11    15.11 o
 -12  17  -5  1975.42  1852.76    68.54 o
 -16  18   5   387.71   344.31    32.66 o
  -2  18  -5   387.14   382.66    35.51 o
 -13  18   5   386.11   419.80    46.57 o
  -5  18  -5   395.58   407.66    32.65 o
 -10  18   5   747.18   728.72    88.03 o
  -8  18  -5   745.80   721.23    52.38 o
 -11  18  -5  2060.96  2074.66    84.12 o
 -18  19   5   432.35   416.70    37.47 o
  -1  19  -5   433.52   437.17    39.19 o
 -15  19   5  1184.83  1127.38    78.69 o
  -4  19  -5  1178.97  1240.36    61.49 o
 -12  19   5   569.29   557.21    81.74 o
  -7  19  -5   565.96   512.98    52.08 o
 -10  19  -5   277.08   247.91    32.82 o
 -20  20   5  2655.76  2684.03   175.04 o
   0  20  -5  2677.69  2718.43   173.42 o
 -17  20   5   356.12   292.68    58.92 o
  -3  20  -5   353.86   406.60    43.09 o
 -14  20   5   854.96   855.41   100.48 o
  -6  20  -5   861.25   852.99    71.58 o
  -9  20  -5   722.05   809.39    62.12 o
  -2  21  -5   742.49   832.36    65.70 o
  -5  21  -5  7522.37  7237.68   261.60 o
  -4  22  -5  1060.49   977.43    94.50 o
  -3  23  -5   778.31   762.76    84.59 o
  -3   6   6  5147.53  5155.99   151.42 o
  -5   7   6  1466.49  1282.87    76.10 o
  -2   7   6  1533.13  1417.65    54.70 o
  -7   8   6   429.34   466.23    34.36 o
  -4   8   6  4466.18  4922.94   142.95 o
  -9   9   6  9872.98 11265.30   321.32 o
  -6   9   6   695.37   629.42    32.55 o
  -8  10   6   272.33   269.27    20.97 o
  -5  10   6 16037.80 16602.20   368.74 o
 -10  11   6  3115.11  3202.62    73.19 o
  -1  11  -6  3167.34  3360.70   149.15 o
  -7  11   6  1575.27  1659.19    54.48 o
 -12  12   6  6387.55  6646.04   166.41 o
   0  12  -6  6372.86  6616.79   246.99 o
  -9  12   6  6423.29  6605.50   127.23 o
  -3  12  -6  6444.63  6575.11   214.57 o
 -11  13   6     9.75     4.68     3.60 <
  -2  13  -6    11.06    -0.44     7.16 <
  -8  13   6   464.55   426.23    62.48 o
  -5  13  -6   457.57   468.17    44.55 o
 -13  14   6  1029.71  1038.59    43.11 o
  -1  14  -6  1023.35  1177.77    67.22 o
 -10  14   6   879.72   925.68    43.36 o
  -4  14  -6   875.72   982.25    74.13 o
  -7  14  -6  4153.17  4227.98   144.28 o
 -15  15   6  4938.74  5161.85   217.57 o
   0  15  -6  4974.28  5151.60   224.74 o
 -12  15   6    29.43    27.23     9.16 <
  -3  15  -6    28.33    29.61    10.90 <
  -9  15   6   129.79    51.88    17.90 <
  -6  15  -6   128.40   139.83    26.96 o
  -9  15  -6   244.10   230.20    25.35 o
 -14  16   6   274.35   230.22    21.72 o
  -2  16  -6   267.75   290.19    34.67 o
 -11  16   6  2176.95  2477.25   160.63 o
  -5  16  -6  2182.22  2168.49   118.55 o
  -8  16  -6  1102.30   904.33    64.55 o
 -16  17   6   792.57   783.90    41.42 o
  -1  17  -6   800.43   854.05    63.70 o
 -13  17   6  3194.12  3208.95   189.86 o
  -4  17  -6  3184.07  3295.40   127.53 o
 -10  17   6  1485.29  1514.40   133.70 o
  -7  17  -6  1467.86  1412.71    89.62 o
 -10  17  -6  1365.04  1404.29    73.35 o
 -18  18   6  1166.82  1365.06    83.07 o
   0  18  -6  1177.05  1184.25   115.58 o
 -15  18   6    52.96    39.85    11.62 o
  -3  18  -6    51.58    26.53    13.54 <
 -12  18   6   992.12  1014.21   110.86 o
  -6  18  -6   991.12   944.59    65.88 o
  -9  18  -6  4493.73  4140.29   158.66 o
 -17  19   6   275.99   144.69    25.77 o
  -2  19  -6   269.05   199.57    48.68 o
  -5  19  -6   312.79   310.22    49.97 o
  -8  19  -6   563.93   527.97    55.67 o
 -19  20   6   572.92   557.27    52.58 o
 -16  20   6   489.38   471.22    72.00 o
  -4  20  -6   500.94   456.99    64.39 o
 -21  21   6  1473.61  1312.29   120.67 o
  -3  21  -6   590.82   588.20    82.16 o
  -4   7   7  6583.60  6379.51   187.28 o
  -1   7   7   343.41   296.14    19.84 o
  -6   8   7   603.07   611.29    53.85 o
  -8   9   7   736.74   681.62    45.90 o
  -5   9   7   130.79   117.05    12.50 o
 -10  10   7  1012.97  1076.03    81.99 o
  -7  10   7  5519.83  5311.95   117.69 o
  -9  11   7   452.16   423.51    27.29 o
  -6  11   7  6317.79  6576.99   185.90 o
 -11  12   7   562.13   610.59    35.94 o
  -8  12   7   995.18   889.96    40.67 o
 -13  13   7  2685.05  2950.47   105.54 o
 -10  13   7  1049.58  1098.47    46.93 o
 -12  14   7  1916.25  2077.97    70.23 o
 -14  15   7   849.39   831.08    40.07 o
  -1  15  -7   853.66   894.70    81.08 o
 -11  15   7   668.81   725.48    53.07 o
  -4  15  -7   668.19   648.59    61.79 o
 -16  16   7  1984.13  1926.86    93.88 o
   0  16  -7  1965.88  2093.45   138.69 o
 -13  16   7    16.89    20.73     9.63 <
  -3  16  -7    17.96    15.08     9.33 <
 -15  17   7  1105.38  1149.13    57.03 o
  -2  17  -7  1096.22  1096.11    72.52 o
 -12  17   7  1162.60  1420.62   127.98 o
  -5  17  -7  1169.23  1250.80    88.71 o
 -17  18   7  1895.17  2033.70    69.40 o
  -1  18  -7  1909.58  2015.46   104.90 o
 -14  18   7  5780.52  6396.25   289.20 o
  -4  18  -7  5760.53  5978.27   234.84 o
  -3  19  -7   320.04   409.29    61.88 o
  -6  19  -7   362.61   398.30    52.07 o
  -2  20  -7   298.87   333.49    57.97 o
  -5  20  -7  2809.40  2899.56   158.04 o
  -2   8   8  3297.84  3095.75    91.23 o
  -7   9   8   585.24   659.11    55.09 o
  -4   9   8  6780.21  5494.79   107.23 o
  -9  10   8    94.50   101.28    25.92 o
  -6  10   8  2727.84  2256.48    65.96 o
 -11  11   8   934.26   975.41    83.21 o
  -8  11   8   435.31   404.69    28.39 o
 -10  12   8   418.55   506.85    52.77 o
 -12  13   8  1146.60  1202.45    67.93 o
  -9  13   8  2767.03  3059.39   129.75 o
 -14  14   8   101.07   103.32    29.56 o
 -11  14   8   697.07   734.20    66.35 o
 -13  15   8  1613.61  1869.91    88.82 o
 -15  16   8  2489.93  2900.04   117.71 o
 -17  17   8   940.30  1007.06    96.44 o
 -14  17   8   983.83  1044.09   106.90 o
 -16  18   8   243.37   308.23    51.46 o
 -18  19   8   208.29   215.11    49.90 o
