data_I
loop_
 _publ_author_name
 _publ_author_address
 'Likhacheva, A.Yu.'
; Sobolev Institute of Geology and Mineralogy SB RAS
3 Koptyuga Avenue
630090 Novosibirsk
RUSSIA
;
 'Rashchenko, S.V.'
; Sobolev Institute of Geology and Mineralogy SB RAS
3 Koptyuga Avenue
630090 Novosibirsk
RUSSIA
Novosibirsk State University
1 Pirogova Street
630090 Novosibirsk
RUSSIA
;
 'Musiyachenko, K.A.'
; Sobolev Institute of Geology and Mineralogy SB RAS
3 Koptyuga Avenue
630090 Novosibirsk
RUSSIA
;
 'Korsakov, A.V.'
; Sobolev Institute of Geology and Mineralogy SB RAS
3 Koptyuga Avenue
630090 Novosibirsk
RUSSIA
;
 'Collings, I.E.'
; European Synchrotron Radiation Facility
71 Avenue des Martyrs
38000 Grenoble
FRANCE
;
 'Hanfland, M'
; European Synchrotron Radiation Facility
71 Avenue des Martyrs
38000 Grenoble
FRANCE
;
_publ_section_title
; Compressibility and structure behaviour of maruyamaite (K-tourmaline)
from the Kokchetav massif at high pressure up to 20 GPa
;
_publ_section_abstract
;
The structural behaviour of maruyamaite (K-dominant tourmaline)
X(K0.54Na0.28Ca0.19)Y(Mg1.3Al1.17Fe0.39Ti0.14)Z(Al5Mg)
[Si5.95Al0.05O18](BO3)3(O0.23(OH)0.77)3O
from the ultrahigh-pressure metamorphic rocks of Kokchetav massif
was studied using synchrotron based single-crystal diffraction up to 20 GPa.
Within the whole pressure range the compression is regular and anisotropic,
with the c direction being more compressible than the a direction.
Fitting the V/P data with the 2nd and 3rd order
Birch-Murnaghan equations of state gives: V0 =1587.2(7) A3, K0 = 115.6(9) GPa
at fixed K'= 4, and V0 =1588(1) A3, K0 = 112(3) GPa, K' = 4.5(4).
The bulk modulus values are slightly higher as compared to those
found for dravite and cation-deficient synthetic K-dravite.
The pressure evolution of the main structural parameters of K-tourmaline
is similar to those of dravite. However, a minor change in the rigidity
of local contacts of the X site with 6-membered ring, due to the presence of K,
is apparently critical for stabilization of tourmaline structure
within 15-20 GPa, which is evinced by the absence of the phase transition
observed in dravite near 15.4 GPa. The stabilizing function of K
becomes apparent at P > 15 GPa. The comparison of the HP structural behaviour
of maruyamaite and dravite supports the recent suggestion that the large X site
plays a secondary role in the elastic behaviour of tourmaline,
compared to the octahedral framework. In addition, the present study reveals
several new features of polyhedra distortions, which demonstrate
their complex interaction on compression.
;
_publ_requested_journal                  'Mineralogy and Petrology'
_publ_contact_author_name                'Likhacheva, A.Yu'
_publ_contact_author_email               alih@igm.nsc.ru
_publ_contact_author_address
; Sobolev Institute of Geology and Mineralogy SB RAS
3 Koptyuga Avenue
630090 Novosibirsk
RUSSIA
;
_chemical_name_mineral                   maruyamaite
_chemical_formula_sum
'Al6.22 B3 Ca0.19 Fe0.39 H2.31 K0.54 Mg2.3 Na0.28 O31 Si5.95 Ti0.14'
_chemical_formula_weight                 985.2
_chemical_compound_source                'Kokchetav Massif (Kumdy-Kol area, northern Kazakhstan)'
_chemical_absolute_configuration         unk
_symmetry_cell_setting                   trigonal
_symmetry_space_group_name_H-M           'R 3 m'
_symmetry_space_group_name_Hall          'R 3;-2"'
_symmetry_Int_Tables_number              160
loop_
 _space_group_symop_id
 _space_group_symop_operation_xyz
 1   x,y,z
 2   -y,x-y,z
 3   -x+y,-x,z
 4   -y,-x,z
 5   -x+y,y,z
 6   x,x-y,z
 7   x+2/3,y+1/3,z+1/3
 8   -y+2/3,x-y+1/3,z+1/3
 9   -x+y+2/3,-x+1/3,z+1/3
 10  -y+2/3,-x+1/3,z+1/3
 11  -x+y+2/3,y+1/3,z+1/3
 12  x+2/3,x-y+1/3,z+1/3
 13  x+1/3,y+2/3,z+2/3
 14  -y+1/3,x-y+2/3,z+2/3
 15  -x+y+1/3,-x+2/3,z+2/3
 16  -y+1/3,-x+2/3,z+2/3
 17  -x+y+1/3,y+2/3,z+2/3
 18  x+1/3,x-y+2/3,z+2/3
_cell_length_a                           15.507(3)
_cell_length_b                           15.507(3)
_cell_length_c                           6.7649(14)
_cell_angle_alpha                        90
_cell_angle_beta                         90
_cell_angle_gamma                        120
_cell_volume                             1408.7(5)
_cell_formula_units_Z                    3
_cell_measurement_reflns_used            441
_cell_measurement_theta_min              2.63
_cell_measurement_theta_max              20.04
_cell_measurement_temperature            293
_exptl_crystal_density_diffrn            3.484
_exptl_crystal_F_000                     1428
_exptl_absorpt_coefficient_mu            0.336
_exptl_crystal_description               platelet
_exptl_crystal_size_max                  0.040
_exptl_crystal_size_mid                  0.035
_exptl_crystal_size_min                  0.020
_exptl_crystal_colour                    brownish
_exptl_absorpt_correction_type           'multi-scan'
_exptl_absorpt_process_details
;
CrysAlisPro 1.171.39.46 (Rigaku Oxford Diffraction, 2018)
Empirical absorption correction using spherical harmonics,
 implemented in SCALE3 ABSPACK scaling algorithm.
;
_exptl_absorpt_correction_T_min          0.967
_exptl_absorpt_correction_T_max          1
_diffrn_ambient_temperature              293
_diffrn_ambient_pressure                 17940000
_diffrn_source                           'ESRF ID15B'
_diffrn_radiation_type                   'synchrotron'
_diffrn_radiation_wavelength             0.41122
_diffrn_radiation_monochromator          'Si(111) Bragg'
_diffrn_detector                         'MAR555 flat panel'
_diffrn_detector_area_resol_mean         7.2
_diffrn_measurement_device               'one-axis goniometer'
_diffrn_measurement_method               '\f scans'
_diffrn_reflns_number                    1068
_diffrn_reflns_theta_min                 1.52
_diffrn_reflns_theta_max                 21.39
_diffrn_reflns_theta_full                14.52
_diffrn_measured_fraction_theta_max      0.38
_diffrn_measured_fraction_theta_full     0.67
_diffrn_reflns_av_R_equivalents          0.0265
_diffrn_reflns_av_unetI/netI             0.0315
_diffrn_reflns_limit_h_min               -20
_diffrn_reflns_limit_h_max               20
_diffrn_reflns_limit_k_min               -18
_diffrn_reflns_limit_k_max               21
_diffrn_reflns_limit_l_min               -8
_diffrn_reflns_limit_l_max               7
_diffrn_radiation_probe                  X-ray
_refine_special_details
; Electron density of each mixed site was approximated by
corresponding occupancy of its major constituent
(0.79K for X, 0.95Si for T, 0.96Al for Z, 1.20Mg for Y).
;
_reflns_special_details
; Reflections outside DAC opening angle were omitted
during integration in CrysAlisPro software.
;
_reflns_number_total                     613
_reflns_number_gt                        600
_reflns_threshold_expression             'I>3\s(I)'
_refine_ls_structure_factor_coef         F
_refine_ls_R_factor_gt                   0.0204
_refine_ls_wR_factor_gt                  0.0275
_refine_ls_R_factor_all                  0.0211
_refine_ls_wR_factor_ref                 0.0281
_refine_ls_goodness_of_fit_ref           1.37
_refine_ls_goodness_of_fit_gt            1.36
_refine_ls_number_reflns                 613
_refine_ls_number_parameters             87
_refine_ls_number_restraints             0
_refine_ls_number_constraints            1
_refine_ls_weighting_scheme              sigma
_refine_ls_weighting_details             'w=1/(\s^2^(F)+0.0001F^2^)'
_refine_ls_hydrogen_treatment            'constr'
_refine_ls_shift/su_max                  0.0346
_refine_ls_shift/su_mean                 0.0023
_refine_diff_density_max                 0.29
_refine_diff_density_min                 -0.30
_refine_ls_extinction_method             'none'
loop_
 _atom_type_symbol
 _atom_type_scat_dispersion_real
 _atom_type_scat_dispersion_imag
 _atom_type_scat_source
 Al   0.0199  0.0165
 'International Tables Vol C tables 4.2.6.8 and 6.1.1.1'
 B   -0.0004  0.0002
 'International Tables Vol C tables 4.2.6.8 and 6.1.1.1'
 Ca   0.0951  0.1050
 'International Tables Vol C tables 4.2.6.8 and 6.1.1.1'
 Fe   0.1968  0.3058
 'International Tables Vol C tables 4.2.6.8 and 6.1.1.1'
 H    0.0000  0.0000
 'International Tables Vol C tables 4.2.6.8 and 6.1.1.1'
 K    0.0805  0.0845
 'International Tables Vol C tables 4.2.6.8 and 6.1.1.1'
 Mg   0.0142  0.0116
 'International Tables Vol C tables 4.2.6.8 and 6.1.1.1'
 Na   0.0096  0.0078
 'International Tables Vol C tables 4.2.6.8 and 6.1.1.1'
 O    0.0018  0.0018
 'International Tables Vol C tables 4.2.6.8 and 6.1.1.1'
 Si   0.0267  0.0229
 'International Tables Vol C tables 4.2.6.8 and 6.1.1.1'
 Ti   0.1267  0.1560
 'International Tables Vol C tables 4.2.6.8 and 6.1.1.1'
_computing_data_collection
 'CrysAlisPro 1.171.39.46 (Rigaku OD, 2018)'
_computing_cell_refinement
 'CrysAlisPro 1.171.39.46 (Rigaku OD, 2018)'
_computing_data_reduction
 'CrysAlisPro 1.171.39.46 (Rigaku OD, 2018)'
_computing_structure_solution            'SUPERFLIP (Palatinus & Chapuis, 2007)'
_computing_structure_refinement          'JANA2006 (Petricek et al., 2014)'
loop_
 _atom_site_label
 _atom_site_type_symbol
 _atom_site_fract_x
 _atom_site_fract_y
 _atom_site_fract_z
 _atom_site_adp_type
 _atom_site_U_iso_or_equiv
 _atom_site_site_symmetry_multiplicity
 _atom_site_occupancy
 _atom_site_calc_flag
 _atom_site_refinement_flags
 _atom_site_disorder_assembly
 _atom_site_disorder_group
  X K 0 0 0.2058(3) Uani 0.0160(6) 3 0.79 d . . .
  T Si 0.19225(5) 0.19003(5) 0.0146 Uani 0.0042(3) 18 0.949 d . . .
  Z Al 0.29487(6) 0.25913(6) 0.61214(19) Uani 0.0054(3) 18 0.961 d . . .
  B B 0.10884(15) 0.2177(3) 0.4467(7) Uani 0.0089(13) 9 1 d . . .
  Y Mg 0.12178(8) 0.06089(4) 0.6333(2) Uani 0.0085(4) 9 1.2 d . . .
  O1 O -0.00854(14) 0.18157(13) -0.2188(3) Uani 0.0082(8) 18 1 d . . .
  O2 O -0.01222(13) 0.28052(13) 0.0934(3) Uani 0.0098(8) 18 1 d . . .
  O3 O 0.06067(14) 0.27005(14) 0.4382(4) Uani 0.0108(8) 18 1 d . . .
  O4 O 0.05884(10) -0.05884(10) 0.4754(5) Uani 0.0121(11) 9 1 d . . .
  O5 O 0 0 0.7939(9) Uani 0.0131(14) 3 1 d . . .
  O6 O -0.1972(2) -0.09860(11) 0.0962(5) Uani 0.0110(10) 9 1 d . . .
  O7 O 0.24492(10) 0.4898(2) -0.2154(5) Uani 0.0113(10) 9 1 d . . .
  O8 O 0.20203(12) 0.4041(2) 0.1656(5) Uani 0.0128(11) 9 1 d . . .
loop_
 _atom_site_aniso_label
 _atom_site_aniso_type_symbol
 _atom_site_aniso_U_11
 _atom_site_aniso_U_22
 _atom_site_aniso_U_33
 _atom_site_aniso_U_12
 _atom_site_aniso_U_13
 _atom_site_aniso_U_23
 X K 0.0123(5) 0.0123(5) 0.0235(13) 0.0062(3) 0 0
 T Si 0.0030(3) 0.0029(3) 0.0067(4) 0.0015(2) -0.0002(2) -0.0002(2)
 Z Al 0.0045(4) 0.0049(3) 0.0065(5) 0.0020(3) -0.0005(3) 0.0002(3)
 B B 0.0073(13) 0.0105(18) 0.010(3) 0.0053(9) 0.0003(6) 0.0006(13)
 Y Mg 0.0072(5) 0.0041(4) 0.0151(8) 0.0036(2) -0.0038(4) -0.00191(19)
 O1 O 0.0118(9) 0.0084(9) 0.0045(13) 0.0051(7) -0.0006(7) -0.0013(7)
 O2 O 0.0130(9) 0.0083(9) 0.0095(12) 0.0064(7) -0.0010(8) -0.0022(7)
 O3 O 0.0103(9) 0.0118(10) 0.0141(12) 0.0084(8) 0.0026(7) 0.0032(7)
 O4 O 0.0137(10) 0.0137(10) 0.014(2) 0.0104(11) 0.0009(5) -0.0009(5)
 O5 O 0.0136(14) 0.0136(14) 0.012(3) 0.0068(7) 0 0
 O6 O 0.0136(13) 0.0085(9) 0.0126(17) 0.0068(6) 0.0026(10) 0.0013(5)
 O7 O 0.0096(8) 0.0162(14) 0.0103(17) 0.0081(7) -0.0024(5) -0.0049(11)
 O8 O 0.0145(10) 0.0261(15) 0.0018(18) 0.0130(8) -0.0001(5) -0.0003(11)
loop_
 _geom_bond_atom_site_label_1
 _geom_bond_atom_site_label_2
 _geom_bond_site_symmetry_1
 _geom_bond_site_symmetry_2
 _geom_bond_distance
 _geom_bond_publ_flag
  X T . . 3.2340(19) ?
  X T . 2_555 3.2340(16) ?
  X T . 3_555 3.2340(17) ?
  X T . 4_555 3.2340(19) ?
  X T . 5_555 3.2340(16) ?
  X T . 6_555 3.2340(17) ?
  X Y . . 3.322(3) ?
  X Y . 2_555 3.322(3) ?
  X Y . 3_555 3.322(3) ?
  X O4 . . 2.413(3) ?
  X O4 . 2_555 2.413(3) ?
  X O4 . 3_555 2.413(3) ?
  X O5 . 1_554 2.787(6) ?
  X O6 . . 2.750(3) ?
  X O6 . 2_555 2.750(4) ?
  X O6 . 3_555 2.750(3) ?
  X O7 . 7_445 2.448(3) ?
  X O7 . 8_555 2.448(3) ?
  X O7 . 9_455 2.448(3) ?
  T O1 . 5_555 1.583(2) ?
  T O2 . 5_555 1.580(2) ?
  T O6 . 3_555 1.609(4) ?
  T O7 . 8_555 1.628(4) ?
  Z Z . 8_555 2.8400(18) ?
  Z Z . 15_554 2.8400(19) ?
  Z Y . . 2.9023(19) ?
  B O3 . . 1.352(5) ?
  B O3 . 5_555 1.352(3) ?
  B O4 . 2_555 1.357(5) ?
  Y Y . 2_555 2.8326(19) ?
  Y Y . 3_555 2.833(2) ?
  Y O1 . 3_556 1.908(3) ?
  Y O1 . 5_556 1.908(2) ?
  Y O4 . . 1.931(3) ?
  Y O4 . 2_555 1.931(3) ?
  Y O5 . . 1.963(4) ?
  Y O8 . 8_555 2.098(4) ?
loop_
 _geom_angle_atom_site_label_1
 _geom_angle_atom_site_label_2
 _geom_angle_atom_site_label_3
 _geom_angle_site_symmetry_1
 _geom_angle_site_symmetry_2
 _geom_angle_site_symmetry_3
 _geom_angle
 _geom_angle_publ_flag
  T X T . . 2_555 105.07(5) ?
  T X T . . 3_555 105.07(5) ?
  T X T . . 4_555 132.83(8) ?
  T X T . . 5_555 55.58(3) ?
  T X T . . 6_555 53.52(3) ?
  T X Y . . . 87.44(3) ?
  T X Y . . 2_555 110.66(4) ?
  T X Y . . 3_555 137.44(5) ?
  T X O4 . . . 107.23(4) ?
  T X O4 . . 2_555 77.62(6) ?
  T X O4 . . 3_555 145.60(7) ?
  T X O5 . . 1_554 66.42(4) ?
  T X O6 . . . 131.36(9) ?
  T X O6 . . 2_555 83.29(6) ?
  T X O6 . . 3_555 29.81(9) ?
  T X O7 . . 7_445 131.93(10) ?
  T X O7 . . 8_555 29.36(9) ?
  T X O7 . . 9_455 84.94(7) ?
  T X T 2_555 . 3_555 105.07(5) ?
  T X T 2_555 . 4_555 55.58(3) ?
  T X T 2_555 . 5_555 53.52(3) ?
  T X T 2_555 . 6_555 132.83(8) ?
  T X Y 2_555 . . 137.44(6) ?
  T X Y 2_555 . 2_555 87.44(3) ?
  T X Y 2_555 . 3_555 110.66(4) ?
  T X O4 2_555 . . 145.60(7) ?
  T X O4 2_555 . 2_555 107.23(6) ?
  T X O4 2_555 . 3_555 77.62(7) ?
  T X O5 2_555 . 1_554 66.42(4) ?
  T X O6 2_555 . . 29.81(5) ?
  T X O6 2_555 . 2_555 131.36(9) ?
  T X O6 2_555 . 3_555 83.29(9) ?
  T X O7 2_555 . 7_445 84.94(7) ?
  T X O7 2_555 . 8_555 131.93(11) ?
  T X O7 2_555 . 9_455 29.36(5) ?
  T X T 3_555 . 4_555 53.52(3) ?
  T X T 3_555 . 5_555 132.83(8) ?
  T X T 3_555 . 6_555 55.58(3) ?
  T X Y 3_555 . . 110.66(4) ?
  T X Y 3_555 . 2_555 137.44(6) ?
  T X Y 3_555 . 3_555 87.44(4) ?
  T X O4 3_555 . . 77.62(6) ?
  T X O4 3_555 . 2_555 145.60(8) ?
  T X O4 3_555 . 3_555 107.23(5) ?
  T X O5 3_555 . 1_554 66.42(4) ?
  T X O6 3_555 . . 83.29(7) ?
  T X O6 3_555 . 2_555 29.81(5) ?
  T X O6 3_555 . 3_555 131.36(10) ?
  T X O7 3_555 . 7_445 29.36(6) ?
  T X O7 3_555 . 8_555 84.94(9) ?
  T X O7 3_555 . 9_455 131.93(9) ?
  T X T 4_555 . 5_555 105.07(5) ?
  T X T 4_555 . 6_555 105.07(5) ?
  T X Y 4_555 . . 137.44(5) ?
  T X Y 4_555 . 2_555 110.66(3) ?
  T X Y 4_555 . 3_555 87.44(3) ?
  T X O4 4_555 . . 107.23(4) ?
  T X O4 4_555 . 2_555 145.60(7) ?
  T X O4 4_555 . 3_555 77.62(6) ?
  T X O5 4_555 . 1_554 66.42(4) ?
  T X O6 4_555 . . 29.81(6) ?
  T X O6 4_555 . 2_555 83.29(6) ?
  T X O6 4_555 . 3_555 131.36(10) ?
  T X O7 4_555 . 7_445 29.36(6) ?
  T X O7 4_555 . 8_555 131.93(11) ?
  T X O7 4_555 . 9_455 84.94(6) ?
  T X T 5_555 . 6_555 105.07(5) ?
  T X Y 5_555 . . 110.66(3) ?
  T X Y 5_555 . 2_555 87.44(3) ?
  T X Y 5_555 . 3_555 137.44(6) ?
  T X O4 5_555 . . 145.60(7) ?
  T X O4 5_555 . 2_555 77.62(7) ?
  T X O4 5_555 . 3_555 107.23(6) ?
  T X O5 5_555 . 1_554 66.42(4) ?
  T X O6 5_555 . . 83.29(6) ?
  T X O6 5_555 . 2_555 131.36(9) ?
  T X O6 5_555 . 3_555 29.81(8) ?
  T X O7 5_555 . 7_445 131.93(10) ?
  T X O7 5_555 . 8_555 84.94(10) ?
  T X O7 5_555 . 9_455 29.36(6) ?
  T X Y 6_555 . . 87.44(3) ?
  T X Y 6_555 . 2_555 137.44(5) ?
  T X Y 6_555 . 3_555 110.66(4) ?
  T X O4 6_555 . . 77.62(6) ?
  T X O4 6_555 . 2_555 107.23(5) ?
  T X O4 6_555 . 3_555 145.60(8) ?
  T X O5 6_555 . 1_554 66.42(4) ?
  T X O6 6_555 . . 131.36(10) ?
  T X O6 6_555 . 2_555 29.81(5) ?
  T X O6 6_555 . 3_555 83.29(9) ?
  T X O7 6_555 . 7_445 84.94(6) ?
  T X O7 6_555 . 8_555 29.36(9) ?
  T X O7 6_555 . 9_455 131.93(10) ?
  Y X Y . . 2_555 50.46(5) ?
  Y X Y . . 3_555 50.46(4) ?
  Y X O4 . . . 35.01(6) ?
  Y X O4 . . 2_555 35.02(7) ?
  Y X O4 . . 3_555 70.40(9) ?
  Y X O5 . . 1_554 150.51(3) ?
  Y X O6 . . . 135.13(10) ?
  Y X O6 . . 2_555 89.87(7) ?
  Y X O6 . . 3_555 89.87(8) ?
  Y X O7 . . 7_445 116.76(9) ?
  Y X O7 . . 8_555 74.58(9) ?
  Y X O7 . . 9_455 116.76(9) ?
  Y X Y 2_555 . 3_555 50.46(5) ?
  Y X O4 2_555 . . 70.40(9) ?
  Y X O4 2_555 . 2_555 35.01(5) ?
  Y X O4 2_555 . 3_555 35.02(6) ?
  Y X O5 2_555 . 1_554 150.51(3) ?
  Y X O6 2_555 . . 89.87(8) ?
  Y X O6 2_555 . 2_555 135.13(10) ?
  Y X O6 2_555 . 3_555 89.87(8) ?
  Y X O7 2_555 . 7_445 116.76(9) ?
  Y X O7 2_555 . 8_555 116.76(9) ?
  Y X O7 2_555 . 9_455 74.58(9) ?
  Y X O4 3_555 . . 35.02(6) ?
  Y X O4 3_555 . 2_555 70.40(9) ?
  Y X O4 3_555 . 3_555 35.01(7) ?
  Y X O5 3_555 . 1_554 150.51(3) ?
  Y X O6 3_555 . . 89.87(7) ?
  Y X O6 3_555 . 2_555 89.87(8) ?
  Y X O6 3_555 . 3_555 135.13(10) ?
  Y X O7 3_555 . 7_445 74.58(9) ?
  Y X O7 3_555 . 8_555 116.76(10) ?
  Y X O7 3_555 . 9_455 116.76(10) ?
  O4 X O4 . . 2_555 69.11(10) ?
  O4 X O4 . . 3_555 69.11(10) ?
  O4 X O5 . . 1_554 139.09(7) ?
  O4 X O6 . . . 121.27(8) ?
  O4 X O6 . . 2_555 64.73(9) ?
  O4 X O6 . . 3_555 121.27(9) ?
  O4 X O7 . . 7_445 82.30(9) ?
  O4 X O7 . . 8_555 82.30(10) ?
  O4 X O7 . . 9_455 144.98(13) ?
  O4 X O4 2_555 . 3_555 69.11(9) ?
  O4 X O5 2_555 . 1_554 139.09(7) ?
  O4 X O6 2_555 . . 121.27(9) ?
  O4 X O6 2_555 . 2_555 121.27(8) ?
  O4 X O6 2_555 . 3_555 64.73(9) ?
  O4 X O7 2_555 . 7_445 144.98(13) ?
  O4 X O7 2_555 . 8_555 82.30(9) ?
  O4 X O7 2_555 . 9_455 82.30(9) ?
  O4 X O5 3_555 . 1_554 139.09(7) ?
  O4 X O6 3_555 . . 64.73(9) ?
  O4 X O6 3_555 . 2_555 121.27(9) ?
  O4 X O6 3_555 . 3_555 121.27(10) ?
  O4 X O7 3_555 . 7_445 82.30(8) ?
  O4 X O7 3_555 . 8_555 144.98(13) ?
  O4 X O7 3_555 . 9_455 82.30(9) ?
  O5 X O6 1_554 . . 74.35(8) ?
  O5 X O6 1_554 . 2_555 74.35(8) ?
  O5 X O6 1_554 . 3_555 74.35(8) ?
  O5 X O7 1_554 . 7_445 75.93(9) ?
  O5 X O7 1_554 . 8_555 75.93(9) ?
  O5 X O7 1_554 . 9_455 75.93(9) ?
  O6 X O6 . . 2_555 113.01(8) ?
  O6 X O6 . . 3_555 113.01(10) ?
  O6 X O7 . . 7_445 57.82(8) ?
  O6 X O7 . . 8_555 150.29(14) ?
  O6 X O7 . . 9_455 57.82(7) ?
  O6 X O6 2_555 . 3_555 113.01(11) ?
  O6 X O7 2_555 . 7_445 57.82(7) ?
  O6 X O7 2_555 . 8_555 57.82(10) ?
  O6 X O7 2_555 . 9_455 150.29(14) ?
  O6 X O7 3_555 . 7_445 150.29(14) ?
  O6 X O7 3_555 . 8_555 57.82(13) ?
  O6 X O7 3_555 . 9_455 57.82(10) ?
  O7 X O7 7_445 . 8_555 114.29(11) ?
  O7 X O7 7_445 . 9_455 114.29(9) ?
  O7 X O7 8_555 . 9_455 114.29(12) ?
  X T O1 . . 5_555 110.60(8) ?
  X T O2 . . 5_555 136.46(9) ?
  X T O6 . . 3_555 58.20(11) ?
  X T O7 . . 8_555 47.49(11) ?
  O1 T O2 5_555 . 5_555 112.37(11) ?
  O1 T O6 5_555 . 3_555 111.45(17) ?
  O1 T O7 5_555 . 8_555 111.16(15) ?
  O2 T O6 5_555 . 3_555 110.27(15) ?
  O2 T O7 5_555 . 8_555 108.49(14) ?
  O6 T O7 3_555 . 8_555 102.65(17) ?
  Z Z Z 8_555 . 15_554 116.47(4) ?
  Z Z Y 8_555 . . 124.20(6) ?
  Z Z Y 15_554 . . 114.34(5) ?
  O3 B O3 . . 5_555 117.1(3) ?
  O3 B O4 . . 2_555 121.40(19) ?
  O3 B O4 5_555 . 2_555 121.4(4) ?
  X Y Z . . . 110.56(5) ?
  X Y Z . . 6_555 110.56(6) ?
  X Y Y . . 2_555 64.77(5) ?
  X Y Y . . 3_555 64.77(5) ?
  X Y O1 . . 3_556 133.85(8) ?
  X Y O1 . . 5_556 133.85(9) ?
  X Y O4 . . . 45.81(9) ?
  X Y O4 . . 2_555 45.81(9) ?
  X Y O5 . . . 94.10(15) ?
  X Y O8 . . 8_555 93.80(11) ?
  Z Y Z . . 6_555 73.28(4) ?
  Z Y Y . . 2_555 113.28(5) ?
  Z Y Y . . 3_555 172.74(7) ?
  Z Y O1 . . 3_556 93.46(7) ?
  Z Y O1 . . 5_556 38.86(8) ?
  Z Y O4 . . . 138.26(11) ?
  Z Y O4 . . 2_555 84.28(5) ?
  Z Y O5 . . . 133.99(10) ?
  Z Y O8 . . 8_555 42.00(11) ?
  Z Y Y 6_555 . 2_555 172.74(5) ?
  Z Y Y 6_555 . 3_555 113.28(5) ?
  Z Y O1 6_555 . 3_556 38.86(8) ?
  Z Y O1 6_555 . 5_556 93.46(11) ?
  Z Y O4 6_555 . . 84.28(7) ?
  Z Y O4 6_555 . 2_555 138.26(11) ?
  Z Y O5 6_555 . . 133.99(10) ?
  Z Y O8 6_555 . 8_555 42.00(13) ?
  Y Y Y 2_555 . 3_555 60.00(5) ?
  Y Y O1 2_555 . 3_556 140.16(10) ?
  Y Y O1 2_555 . 5_556 93.72(11) ?
  Y Y O4 2_555 . . 88.59(7) ?
  Y Y O4 2_555 . 2_555 42.83(8) ?
  Y Y O5 2_555 . . 43.83(11) ?
  Y Y O8 2_555 . 8_555 141.30(14) ?
  Y Y O1 3_555 . 3_556 93.72(7) ?
  Y Y O1 3_555 . 5_556 140.16(11) ?
  Y Y O4 3_555 . . 42.83(8) ?
  Y Y O4 3_555 . 2_555 88.59(7) ?
  Y Y O5 3_555 . . 43.83(11) ?
  Y Y O8 3_555 . 8_555 141.30(12) ?
  O1 Y O1 3_556 . 5_556 89.34(12) ?
  O1 Y O4 3_556 . . 90.12(10) ?
  O1 Y O4 3_556 . 2_555 177.00(12) ?
  O1 Y O5 3_556 . . 96.35(14) ?
  O1 Y O8 3_556 . 8_555 78.11(14) ?
  O1 Y O4 5_556 . . 177.00(13) ?
  O1 Y O4 5_556 . 2_555 90.12(12) ?
  O1 Y O5 5_556 . . 96.35(14) ?
  O1 Y O8 5_556 . 8_555 78.10(13) ?
  O4 Y O4 . . 2_555 90.26(12) ?
  O4 Y O5 . . . 86.65(13) ?
  O4 Y O8 . . 8_555 98.89(14) ?
  O4 Y O5 2_555 . . 86.65(13) ?
  O4 Y O8 2_555 . 8_555 98.89(15) ?
  O5 Y O8 . . 8_555 172.10(19) ?
  T O1 Y 5_555 . 2_554 125.60(13) ?
  X O4 B . . 3_555 122.7(3) ?
  X O4 Y . . . 99.18(9) ?
  X O4 Y . . 3_555 99.18(9) ?
  B O4 Y 3_555 . . 118.0(2) ?
  B O4 Y 3_555 . 3_555 118.04(19) ?
  Y O4 Y . . 3_555 94.35(14) ?
  X O5 Y 1_556 . . 123.59(15) ?
  X O5 Y 1_556 . 2_555 123.59(15) ?
  X O5 Y 1_556 . 3_555 123.59(15) ?
  Y O5 Y . . 2_555 92.3(2) ?
  Y O5 Y . . 3_555 92.3(2) ?
  Y O5 Y 2_555 . 3_555 92.3(2) ?
  X O6 T . . 2_555 91.99(8) ?
  X O6 T . . 4_555 91.99(15) ?
  T O6 T 2_555 . 4_555 139.2(2) ?
  X O7 T 13_554 . 15_554 103.15(8) ?
  X O7 T 13_554 . 16_554 103.16(16) ?
  T O7 T 15_554 . 16_554 126.8(2) ?
loop_
 _refln_index_h
 _refln_index_k
 _refln_index_l
 _refln_F_squared_calc
 _refln_F_squared_meas
 _refln_F_squared_sigma
 _refln_observed_status
  -3   3   0  7995.71  8160.37   223.21 o
  -4   5   0  8804.57  9284.08   186.37 o
  -3   6   0   822.73  1068.92    54.57 o
  -6   6   0  9491.47  9219.61   269.14 o
  -2   7   0   827.76   821.60    49.73 o
  -1   8   0  1841.09  1928.61    90.59 o
  -7   8   0  1855.54  1894.74    62.56 o
  -3   9   0   798.50   955.40    59.68 o
   0   9   0 27919.00 27998.50   760.30 o
  -5  10   0 79059.30 70232.60  1808.00 o
  -2  10   0 13011.20 12955.30   391.55 o
  -8  10   0 13074.50 13675.70   407.86 o
  -4  11   0 17597.80 17301.00   359.59 o
  -7  11   0 17614.40 17692.30   360.71 o
  -1  11   0 42029.30 41584.40  1115.30 o
 -10  11   0 42069.20 41908.80  1114.18 o
  -6  12   0 43905.20 41736.20  1117.18 o
  -3  12   0 19182.90 19109.80   392.57 o
  -9  12   0 19159.10 18770.90   392.88 o
   0  12   0  4747.60  4699.78   189.84 o
 -12  12   0  4716.92  4592.28   190.57 o
  -5  13   0  3402.51  3459.41   155.13 o
  -8  13   0  3389.69  3332.84   108.98 o
  -2  13   0  3909.39  4059.32   175.73 o
 -11  13   0  3929.32  3920.58   172.39 o
  -7  14   0   703.66   523.99    39.33 o
  -4  14   0   707.58   747.93    48.29 o
 -10  14   0   700.56   798.80    48.90 o
  -1  14   0   680.28   700.88    67.54 o
 -13  14   0   681.72   673.11    64.45 o
  -6  15   0  5842.56  6175.69   173.82 o
  -9  15   0  5858.89  6121.90   173.04 o
  -3  15   0   872.67   884.78    76.04 o
 -12  15   0   871.83   904.91    77.28 o
 -15  15   0 15281.30 15773.70   505.94 o
  -8  16   0  4120.71  4138.89   136.52 o
  -5  16   0  4952.49  4918.23   155.85 o
 -11  16   0  4963.93  5192.91   157.90 o
  -2  16   0  1017.46   996.30    86.50 o
 -14  16   0  1019.44  1064.90    87.73 o
  -7  17   0   422.95   467.30    41.27 o
 -10  17   0   417.03   476.69    40.80 o
  -4  17   0  1952.40  2052.66   132.44 o
 -13  17   0  1950.00  2149.22   135.08 o
 -16  17   0 11265.50 11782.60   416.93 o
  -9  18   0  1519.55  1331.98    74.22 o
  -6  18   0   368.85   300.35    36.13 o
 -12  18   0   358.18   360.45    35.72 o
  -3  18   0  3867.27  3966.42   203.82 o
 -15  18   0  3872.09  3686.44   200.65 o
  -8  19   0  3573.40  3481.26   135.80 o
 -11  19   0  3576.70  3621.83   136.46 o
  -5  19   0   284.53   255.38    48.95 o
 -14  19   0   278.68   229.57    51.61 o
  -2  19   0    44.17    24.86    15.96 <
 -17  19   0    45.66    10.52    11.93 <
 -10  20   0  8169.77  8227.69   240.58 o
  -7  20   0  3358.98  3550.41   197.21 o
 -13  20   0  3357.88  3201.81   188.24 o
  -2   3   1 11824.90 11140.20   298.70 o
  -1   3  -1 11744.10 11327.50   210.18 o
   0   4  -1  1919.22  2419.72    58.41 o
  -1   4   1  2661.34  3036.80   103.68 o
  -3   4  -1  2639.31  3131.34   104.75 o
  -3   5   1  6441.82  6599.48   134.70 o
  -2   5  -1  6398.80  6791.31   197.58 o
  -5   6   1 21845.90 22470.10   610.15 o
  -1   6  -1 22068.20 22724.30   421.55 o
  -2   6   1  4053.69  3808.75   133.46 o
  -7   7   1  2663.67  3004.77   114.96 o
   0   7  -1  2648.84  2919.15   113.22 o
  -4   7   1 15592.40 16136.70   459.41 o
  -3   7  -1 15685.70 17133.10   461.25 o
  -6   8   1 13760.20 13749.10   389.42 o
  -2   8  -1 13704.50 13278.80   267.35 o
  -3   8   1  1166.44  1408.97    72.71 o
  -5   8  -1  1166.38  1297.50    49.86 o
  -8   9   1  5392.27  5810.97   135.24 o
  -1   9  -1  5360.47  5451.41   110.53 o
  -5   9   1  2158.27  2326.02   102.11 o
  -4   9  -1  2137.18  2325.44    74.21 o
  -7   9  -1 17336.80 17484.80   500.91 o
 -10  10   1 65759.20 65602.20  1694.01 o
  -7  10   1  1959.75  2040.48    55.81 o
  -3  10  -1  1953.03  1981.23    97.08 o
  -4  10   1 10155.30 10511.50   229.84 o
  -6  10  -1 10232.30 10118.30   321.91 o
  -1  10   1  8480.96  8826.24   288.99 o
  -9  10  -1  8532.42  8629.87   287.29 o
  -9  11   1  2118.22  2171.62    74.33 o
  -2  11  -1  2124.82  2228.25   107.96 o
  -6  11   1 14147.20 14099.50   299.62 o
  -5  11  -1 14227.80 14260.00   302.23 o
  -3  11   1  7039.55  6910.23   245.35 o
  -8  11  -1  7004.82  6933.51   243.73 o
 -11  12   1 16090.70 16034.10   342.48 o
  -1  12  -1 16155.40 16425.30   342.62 o
  -8  12   1  1516.74  1494.08    91.50 o
  -5  12   1  5524.98  4713.86   149.87 o
  -2  12   1  5291.28  4849.02   196.48 o
 -10  12  -1  5243.56  4579.05   192.09 o
 -13  13   1  3459.86  3494.58   157.91 o
   0  13  -1  3474.47  3452.21   156.66 o
 -10  13   1  7038.42  7292.43   186.13 o
  -3  13  -1  7034.60  7227.67   184.12 o
  -7  13   1  1785.47  1581.55    68.80 o
  -6  13  -1  1771.88  1610.51    70.16 o
  -4  13   1   788.72   891.02    70.28 o
  -9  13  -1   795.75   643.37    45.97 o
 -12  13  -1    52.74    24.99    11.68 <
 -12  14   1  4531.12  4601.79   133.20 o
  -2  14  -1  4505.16  4265.72   194.05 o
  -9  14   1  2686.20  2607.76    95.51 o
  -5  14  -1  2666.57  2680.92    97.18 o
  -6  14   1  2448.19  2271.98    89.42 o
  -3  14   1  4560.94  4751.43   204.95 o
 -14  15   1   620.66   588.38    42.69 o
  -1  15  -1   633.10   609.33    60.20 o
 -11  15   1  7966.52  8019.46   208.44 o
  -4  15  -1  8007.47  8019.96   208.16 o
  -8  15   1   515.80   484.92    39.39 o
  -7  15  -1   511.82   480.24    39.93 o
  -5  15   1 12378.10 12427.20   290.49 o
 -10  15  -1 12451.10 12273.30   422.80 o
  -2  15   1  2876.09  2708.15   154.24 o
 -13  15  -1  2854.54  2945.26   156.05 o
 -16  16   1  2707.83  2886.05   152.06 o
   0  16  -1  2763.96  2500.98   148.46 o
 -13  16   1  5004.51  5070.91   157.19 o
  -3  16  -1  4995.22  4905.66   155.28 o
 -10  16   1  5231.75  5189.16   158.39 o
  -6  16  -1  5266.06  5245.19   157.88 o
  -7  16   1  6592.67  6716.24   189.21 o
  -9  16  -1  6614.96  6734.73   191.13 o
  -4  16   1  7506.99  7532.69   296.53 o
 -12  16  -1  7560.37  7379.78   291.82 o
 -15  17   1    55.62    51.55    19.76 <
  -2  17  -1    52.75    38.50    19.02 <
 -12  17   1   920.90   867.63    58.06 o
  -5  17  -1   905.07   922.07    58.79 o
  -9  17   1  4096.81  3927.57   138.52 o
  -8  17  -1  4081.69  4190.96   139.82 o
  -6  17   1 11610.20 11494.90   290.64 o
 -11  17  -1 11690.30 11910.10   293.27 o
  -3  17   1  1385.76  1480.21   112.68 o
 -14  17  -1  1397.75  1462.72   111.37 o
 -17  18   1  1522.63  1499.22    80.57 o
  -1  18  -1  1517.41  1590.23   117.15 o
 -14  18   1   503.24   477.10    43.43 o
  -4  18  -1   505.22   528.93    46.42 o
 -11  18   1  1963.43  1954.66    92.42 o
  -7  18  -1  1983.26  1989.27    92.71 o
  -8  18   1  1917.12  1603.18    85.83 o
 -10  18  -1  1901.04  1856.71    89.78 o
  -5  18   1   461.20   395.48    60.00 o
 -13  18  -1   456.95   409.85    57.36 o
 -19  19   1  1696.00  1880.58   135.97 o
 -16  19   1   536.72   522.99    68.70 o
  -3  19  -1   524.88   578.96    73.18 o
 -13  19   1  4051.03  4122.42   147.21 o
  -6  19  -1  4017.02  3940.63   145.99 o
 -10  19   1   951.74   833.79    60.29 o
  -9  19  -1   943.02   955.00    65.89 o
  -7  19   1  2504.52  2380.85   109.26 o
 -12  19  -1  2498.24  2403.06   109.75 o
  -4  19   1  4782.83  5035.53   245.38 o
 -15  19  -1  4772.48  4875.14   243.80 o
 -15  20   1  6050.18  6181.56   274.27 o
  -5  20  -1  6050.30  5897.90   279.02 o
 -12  20   1   445.19   531.72    62.40 o
  -8  20  -1   431.86   462.23    46.30 o
  -9  20   1  1318.53  1246.65    77.19 o
 -11  20  -1  1338.44  1368.54    80.59 o
  -3   4   2  4598.52  4669.84    91.93 o
  -1   4  -2  4645.79  4273.84    95.40 o
  -5   5   2 34587.70 31907.60   862.26 o
   0   5  -2 34702.40 32612.50   864.07 o
  -2   6  -2  9629.68 10220.50   202.62 o
  -6   7   2  2250.40  2228.35    65.46 o
  -1   7  -2  2267.82  2269.70    63.99 o
  -3   7   2 44353.90 47073.90  1185.24 o
  -8   8   2  2453.59  2696.99   112.12 o
  -5   8   2   860.54   759.18    33.76 o
  -3   8  -2   867.78   743.39    49.33 o
  -2   8   2  6626.67  6945.26   231.63 o
  -7   9   2 16333.30 16948.70   271.89 o
  -2   9  -2 16282.60 16655.80   273.09 o
  -5   9  -2  9581.94 10071.30   313.14 o
  -9  10   2   512.49   480.02    21.71 o
  -1  10  -2   507.82   487.27    21.53 o
  -6  10   2 17022.50 16746.70   273.64 o
  -4  10  -2 17054.20 16898.90   343.20 o
  -3  10   2   544.38   560.09    50.29 o
  -7  10  -2   538.75   514.77    51.56 o
 -11  11   2  2316.24  2375.17   110.91 o
   0  11  -2  2302.97  2219.21    78.70 o
  -8  11   2  8771.08  8350.86   158.95 o
  -3  11  -2  8787.72  9064.42   290.75 o
  -5  11   2 14189.80 14366.90   435.13 o
  -6  11  -2 14245.90 13979.50   301.59 o
 -10  12   2  3445.04  3305.20    81.24 o
  -2  12  -2  3401.79  3294.72    98.93 o
  -7  12   2  5179.57  5419.08   143.74 o
  -5  12  -2  5143.95  5119.81   144.34 o
  -4  12   2 10751.00 10419.70   350.92 o
  -8  12  -2 10748.00 10935.00   352.95 o
 -12  13   2  5562.86  5355.07   104.85 o
  -1  13  -2  5546.04  5420.81   121.09 o
  -9  13   2  6435.89  6417.59   132.94 o
  -4  13  -2  6399.78  6255.83   167.09 o
  -6  13   2   585.23   581.10    39.56 o
  -7  13  -2   584.41   554.60    39.42 o
  -3  13   2  2922.29  3093.69   154.12 o
 -10  13  -2  2903.16  3096.07   155.83 o
 -14  14   2  2545.45  2741.16   144.26 o
   0  14  -2  2546.28  2536.11   133.72 o
 -11  14   2  1817.04  1798.91    61.33 o
  -3  14  -2  1791.42  1822.23    77.65 o
  -6  14  -2  9904.30  9867.93   337.28 o
  -5  14   2  4854.93  5075.73   212.35 o
  -9  14  -2  4844.50  4845.49   212.21 o
 -13  15   2  2618.79  2396.41    92.80 o
  -2  15  -2  2631.17  2404.59    94.81 o
 -10  15   2  4228.49  4451.20   136.48 o
  -5  15  -2  4223.97  4099.95   132.93 o
  -7  15   2  5273.98  5242.92   155.48 o
  -8  15  -2  5268.51  5057.84   154.92 o
  -4  15   2  4001.00  4193.07   192.55 o
 -11  15  -2  4010.09  3969.60   192.84 o
 -15  16   2  2945.83  2942.53    89.84 o
  -1  16  -2  2975.63  3006.25   109.42 o
 -12  16   2  6076.08  6171.08   175.32 o
  -4  16  -2  6087.83  5795.80   172.76 o
  -9  16   2  2795.24  2618.13   104.55 o
  -7  16  -2  2792.93  2700.46   149.61 o
  -6  16   2  3566.64  3731.67   184.31 o
 -10  16  -2  3574.48  3726.70   186.37 o
 -17  17   2   191.28   230.46    42.92 o
   0  17  -2   196.41   204.58    37.05 o
 -14  17   2  2887.86  2807.82    87.86 o
  -3  17  -2  2905.66  2928.40   114.26 o
 -11  17   2   228.43   262.46    30.29 o
  -6  17  -2   232.36   221.20    27.00 o
  -8  17   2  3125.68  3179.70   120.33 o
  -9  17  -2  3111.12  3184.92   121.06 o
  -5  17   2   881.25   914.40    87.11 o
 -12  17  -2   866.61   846.37    85.71 o
 -16  18   2  4310.88  4416.11   146.18 o
  -2  18  -2  4331.27  4727.09   219.05 o
 -13  18   2  3395.42  3651.74   132.90 o
  -5  18  -2  3423.45  3612.52   133.40 o
 -10  18   2  1467.60  1507.83    79.48 o
  -8  18  -2  1456.61  1390.38    75.60 o
  -7  18   2  3779.76  3811.71   198.45 o
 -11  18  -2  3771.73  3643.03   192.35 o
  -4  18   2   423.80   489.90    65.81 o
 -14  18  -2   413.75   434.43    61.06 o
 -18  19   2  1570.82  1545.23    83.31 o
  -1  19  -2  1550.96  1473.24   112.35 o
 -15  19   2   562.83   564.55    47.75 o
  -4  19  -2   552.34   528.70    46.88 o
 -12  19   2   588.42   519.64    46.97 o
  -7  19  -2   572.91   598.82    48.66 o
  -9  19   2   988.89   959.91    67.14 o
 -10  19  -2  1003.07   891.51    64.18 o
  -6  19   2  5506.16  5644.02   267.73 o
 -13  19  -2  5476.06  6070.49   274.33 o
 -17  20   2   390.98   320.60    54.19 o
  -3  20  -2   389.60   374.33    59.68 o
 -14  20   2   743.82   729.73    78.11 o
  -6  20  -2   742.80   681.78    78.52 o
 -11  20   2  1028.48   956.47    93.87 o
  -9  20  -2  1036.94  1086.52    97.56 o
  -4   5   3    55.89    74.65    11.12 o
  -1   5  -3    53.87    57.51     6.15 o
   0   6  -3 12643.80 11756.40   329.54 o
  -3   6  -3 14442.20 13778.10   254.00 o
  -5   7   3  1365.13  1305.72    40.12 o
  -2   7  -3  1372.27  1277.83    35.38 o
  -2   7   3   973.66  1026.34    38.95 o
  -7   8   3  5867.68  5688.15   134.81 o
  -4   8   3  1542.83  1571.00    39.39 o
  -4   8  -3  1559.31  1499.45    83.11 o
  -9   9   3  4714.35  4667.48   164.47 o
   0   9  -3  4769.88  4698.25   170.21 o
  -6   9   3 15528.30 16059.80   258.44 o
  -3   9  -3 15539.00 15686.10   445.37 o
  -3   9   3  3893.87  3807.71   112.38 o
  -8  10   3  1534.33  1521.76    54.22 o
  -2  10  -3  1516.77  1549.74    46.38 o
  -5  10   3  8123.44  8402.11   246.43 o
 -10  11   3 22106.30 21507.50   297.28 o
  -1  11  -3 22020.40 20672.00   296.76 o
  -7  11   3  1857.62  1742.04    55.66 o
  -4  11  -3  1837.33  1716.98   101.29 o
  -4  11   3  2259.57  2234.67    81.30 o
 -12  12   3  1759.75  1773.64    70.39 o
   0  12  -3  1785.29  1750.15   102.25 o
  -9  12   3  4752.98  4711.03   104.67 o
  -3  12  -3  4726.68  4775.15   105.94 o
  -6  12   3  1053.13   968.47    44.60 o
  -6  12  -3  1043.43   884.43    70.80 o
 -11  13   3  2017.38  2031.94    54.31 o
  -2  13  -3  2034.22  2073.91    75.43 o
  -8  13   3   403.98   349.13    21.36 o
  -5  13  -3   391.07   377.30    31.65 o
  -5  13   3  5811.06  5709.48   228.59 o
 -13  14   3  1678.55  1626.78    49.93 o
  -1  14  -3  1669.17  1722.37    74.03 o
 -10  14   3    13.74     6.09     4.07 <
  -4  14  -3    15.35     1.96     2.17 <
  -7  14   3  7810.39  7730.68   187.32 o
  -7  14  -3  7880.14  7891.73   289.04 o
 -15  15   3 12443.50 12153.00   285.03 o
   0  15  -3 12409.70 12391.10   287.74 o
 -12  15   3  2656.81  2491.12    77.86 o
  -3  15  -3  2656.05  2765.52   141.08 o
  -9  15   3  8696.48  8692.69   176.57 o
  -6  15  -3  8699.53  9184.90   228.45 o
  -6  15   3  7047.99  7228.94   280.83 o
  -9  15  -3  7017.53  7086.09   281.97 o
 -14  16   3  1508.52  1533.49    51.01 o
  -2  16  -3  1506.65  1439.25   101.03 o
 -11  16   3    74.99    50.61     9.53 o
  -5  16  -3    73.12    58.38    13.61 o
  -8  16   3  6044.73  5544.68   243.04 o
  -8  16  -3  6068.60  5784.33   246.62 o
  -5  16   3 13187.60 13574.70   460.48 o
 -11  16  -3 13162.40 13278.90   456.38 o
 -16  17   3  1985.85  2037.75    63.93 o
  -1  17  -3  1974.14  2074.23    73.40 o
 -13  17   3  4768.23  4727.49   119.79 o
  -4  17  -3  4796.92  4685.74   152.56 o
 -10  17   3  3839.14  3802.44   135.73 o
  -7  17  -3  3863.25  3888.97   136.64 o
  -7  17   3  4039.54  4074.44   203.89 o
 -10  17  -3  4062.06  3979.70   205.19 o
 -18  18   3  2239.96  2381.59   103.28 o
   0  18  -3  2242.39  2340.87   143.55 o
 -15  18   3   581.25   617.37    37.83 o
  -3  18  -3   588.30   643.84    49.50 o
 -12  18   3  5938.76  6024.80   144.75 o
  -6  18  -3  5914.64  6369.23   187.98 o
  -9  18   3  6134.06  5882.56   265.55 o
  -9  18  -3  6102.91  5913.80   264.19 o
  -6  18   3   869.34   887.87    87.34 o
 -12  18  -3   860.39   780.10    87.24 o
 -17  19   3  5556.01  5649.66   180.73 o
  -2  19  -3  5552.37  5403.38   179.20 o
 -14  19   3   448.74   441.60    32.52 o
  -5  19  -3   453.54   449.47    42.77 o
 -11  19   3  1645.71  1813.27    93.63 o
  -8  19  -3  1640.95  1724.12    89.82 o
  -8  19   3   418.98   422.79    60.63 o
 -11  19  -3   416.90   379.88    58.57 o
 -19  20   3   905.09   880.41    59.99 o
  -1  20  -3   899.24   843.32    89.04 o
 -16  20   3   465.42   504.21    43.44 o
  -4  20  -3   463.45   486.66    65.95 o
 -13  20   3   557.24   557.89    70.02 o
  -7  20  -3   546.19   542.03    70.68 o
 -18  21   3  1043.45   998.12    89.47 o
  -1   6  -4 60967.40 58192.40  1051.92 o
  -4   6  -4  8258.72  8188.09   218.16 o
   0   7  -4  7003.52  6845.79   152.51 o
  -4   7   4 39430.10 38149.20   974.91 o
  -3   7  -4 39562.10 37994.60   682.65 o
  -6   8   4  7422.26  7635.68   227.55 o
  -2   8  -4  7436.91  7387.12   166.38 o
  -3   8   4 16218.70 15967.90   416.15 o
  -8   9   4  3408.49  3429.16    96.73 o
  -1   9  -4  3409.53  3432.70    77.69 o
  -4   9  -4 10712.10 10742.60   180.10 o
  -2   9   4  1705.10  1696.60    54.64 o
 -10  10   4 14477.40 15028.70   305.89 o
   0  10  -4 14414.70 14539.70   305.08 o
  -7  10   4  2558.50  2591.16    62.63 o
  -3  10  -4  2593.52  2672.96    63.66 o
  -4  10   4  1647.17  1679.08    65.11 o
  -1  10   4  3183.34  3269.49    93.71 o
  -9  11   4  1587.76  1474.52    48.08 o
  -2  11  -4  1600.74  1667.48    61.59 o
  -6  11   4  3049.49  2842.45    72.36 o
  -5  11  -4  3033.06  2708.01   134.24 o
  -3  11   4  3022.18  2966.23    86.99 o
 -11  12   4  2550.75  2481.35    70.25 o
  -1  12  -4  2545.49  2592.65    60.69 o
  -8  12   4   853.79   844.17    32.78 o
  -4  12  -4   860.79   836.66    35.77 o
  -5  12   4  1753.21  1841.73    50.81 o
 -13  13   4    88.64    93.58    14.77 o
   0  13  -4    83.51    85.60    13.10 o
 -10  13   4   378.78   380.07    23.69 o
  -3  13  -4   373.66   400.66    25.64 o
  -7  13   4 12434.40 12545.60   273.76 o
  -4  13   4 10628.50 10404.20   292.29 o
 -12  14   4  4785.47  4854.97   111.38 o
  -2  14  -4  4797.50  4940.94   140.25 o
  -9  14   4  1425.21  1418.76    48.98 o
  -5  14  -4  1430.16  1490.63    71.06 o
  -6  14   4  9687.38  9910.97   279.57 o
  -8  14  -4  9727.00  9901.51   350.74 o
 -14  15   4  2723.75  2654.57    92.94 o
  -1  15  -4  2733.74  2609.29    68.54 o
 -11  15   4  6139.96  6271.03   133.60 o
  -4  15  -4  6105.03  6253.31   175.74 o
  -8  15   4   307.23   335.64    22.03 o
  -7  15  -4   300.56   295.02    47.04 o
 -16  16   4 15083.30 15165.30   341.44 o
   0  16  -4 15038.70 15300.50   345.77 o
 -13  16   4  1047.41  1008.41    39.05 o
  -3  16  -4  1045.31  1038.81    47.10 o
 -10  16   4 13617.90 14684.90   483.51 o
  -6  16  -4 13556.70 14022.30   329.94 o
  -7  16   4  4339.72  4339.09   130.07 o
  -9  16  -4  4353.68  4682.04   216.39 o
 -15  17   4  2000.20  2083.84    62.13 o
  -2  17  -4  2013.09  2062.49    72.53 o
 -12  17   4  3159.96  3265.61    90.75 o
  -5  17  -4  3141.56  3237.90   120.02 o
  -9  17   4  1160.17  1167.35    59.79 o
  -8  17  -4  1169.64  1124.49    99.88 o
 -17  18   4  1959.50  1996.26    64.10 o
  -1  18  -4  1962.83  1983.20    74.24 o
 -14  18   4  4286.02  4311.00    98.77 o
  -4  18  -4  4316.45  4411.78   146.93 o
 -11  18   4   252.26   241.49    28.50 o
  -7  18  -4   254.48   303.93    34.42 o
  -8  18   4   728.21   870.78    86.55 o
 -10  18  -4   729.95   767.38    82.76 o
 -19  19   4  3846.17  3873.85   195.16 o
   0  19  -4  3838.99  4205.56   201.59 o
 -16  19   4    44.73    10.63     7.54 <
  -3  19  -4    46.46    17.81     7.36 <
 -13  19   4    40.16    52.92    12.62 o
  -6  19  -4    42.00    32.89    11.67 <
 -18  20   4   648.69   666.26    48.49 o
  -2  20  -4   653.74   643.21    75.74 o
 -15  20   4  3600.75  3611.19   126.90 o
  -5  20  -4  3603.49  3819.86   199.14 o
 -20  21   4  2766.43  2884.87   161.38 o
 -17  21   4   652.90   625.26    63.37 o
 -19  22   4   709.90   828.93    77.94 o
  -2   6  -5   140.18    71.33    13.66 o
  -1   7  -5  5199.33  5237.74   101.11 o
  -4   7  -5  4833.20  4564.85    93.87 o
   0   8  -5  3795.04  3858.44   147.67 o
  -3   8  -5   365.17   292.08    27.59 o
  -2   9  -5  1641.28  1566.04    56.38 o
  -5   9  -5  1943.69  2040.67    73.61 o
  -9  10   5   915.00   934.47    61.12 o
  -1  10  -5   918.97   930.38    30.92 o
  -4  10  -5  4512.09  4870.12   158.72 o
   0  11  -5  4118.62  4342.11   120.54 o
  -8  11   5   520.01   579.82    42.28 o
  -3  11  -5   514.00   467.82    24.59 o
  -5  11   5 33650.10 33743.40   867.37 o
 -10  12   5   894.65   774.84    44.99 o
  -2  12  -5   887.78   839.34    31.16 o
  -7  12   5  5830.11  5871.90   191.05 o
  -5  12  -5  5809.73  5597.45   226.13 o
  -4  12   5  1924.35  1858.43    67.88 o
 -12  13   5  4514.06  4513.16   132.47 o
  -1  13  -5  4525.05  4579.65    91.84 o
  -9  13   5  2616.67  2742.55    92.10 o
  -4  13  -5  2619.33  2659.03    87.62 o
  -6  13   5   831.45   723.42    44.13 o
  -3  13   5  5800.45  5334.44   151.80 o
 -14  14   5  1963.95  1874.74   114.85 o
   0  14  -5  1948.09  1810.26    75.65 o
 -11  14   5  2201.68  2172.20    82.42 o
  -3  14  -5  2194.65  2224.47    57.46 o
  -8  14   5  1229.70  1292.16    46.10 o
  -6  14  -5  1222.56  1239.21    95.26 o
  -2  14   5  1129.67   948.92    37.26 o
 -13  15   5   253.09   239.77    21.16 o
  -2  15  -5   250.22   253.02    18.33 o
 -10  15   5 14878.10 15036.70   260.67 o
  -5  15  -5 14960.40 15479.80   500.58 o
  -7  15   5  2560.99  2532.86    67.86 o
  -4  15   5   930.22   824.45    26.24 o
 -15  16   5  8288.44  8394.02   177.71 o
  -1  16  -5  8284.42  8605.68   153.57 o
 -12  16   5  4702.86  4816.59   112.39 o
  -4  16  -5  4709.13  4494.35   146.58 o
  -9  16   5  1788.86  1801.27    59.73 o
  -7  16  -5  1805.81  1515.92   116.03 o
  -6  16   5  6575.21  6410.64   136.54 o
 -17  17   5  2610.17  2605.30   101.57 o
   0  17  -5  2594.69  2536.69   102.11 o
 -14  17   5  2786.33  2984.66    85.42 o
  -3  17  -5  2787.37  2837.27    86.37 o
 -11  17   5  4468.48  4663.14   110.33 o
  -6  17  -5  4504.57  4944.58   228.48 o
  -8  17   5   159.75   155.65    14.25 o
  -5  17   5  2056.07  1921.93    68.76 o
 -16  18   5   255.67   258.33    24.37 o
  -2  18  -5   254.84   241.89    22.78 o
 -13  18   5  1006.50  1109.26    49.25 o
  -5  18  -5  1025.43  1067.30    66.85 o
 -10  18   5   147.04   149.01    16.01 o
  -8  18  -5   145.86   128.48    31.52 o
  -7  18   5  2113.85  2131.18    83.70 o
 -18  19   5   316.28   306.51    27.68 o
  -1  19  -5   318.60   322.74    32.97 o
 -15  19   5   821.73   835.72    49.57 o
  -4  19  -5   817.18   797.09    78.80 o
 -12  19   5   316.11   325.77    34.13 o
  -9  19   5   634.33   675.16    45.08 o
 -20  20   5  2239.70  2062.70   131.95 o
   0  20  -5  2251.80  2240.37   141.32 o
 -17  20   5   260.30   248.91    28.27 o
  -3  20  -5   261.44   311.33    44.21 o
 -14  20   5   875.80  1040.48    69.91 o
  -6  20  -5   884.23   844.68    88.60 o
 -19  21   5   497.36   591.28    64.16 o
 -16  21   5  6015.80  5997.40   229.48 o
 -18  22   5   669.40   608.01    62.36 o
 -20  23   5   912.91   819.41    80.16 o
  -3   6  -6  2104.83  1858.78    75.29 o
  -2   7  -6   899.89   878.44    52.51 o
  -5   7  -6   706.74   716.46    32.37 o
  -1   8  -6   344.88   366.87    27.17 o
  -4   8  -6  3446.59  3738.40    82.92 o
   0   9  -6 12601.20 13590.80   406.60 o
  -3   9  -6   514.65   457.35    23.76 o
  -2  10  -6   586.18   632.22    28.47 o
  -5  10  -6 11940.50 11881.80   328.76 o
  -1  11  -6  3314.87  3438.20    82.85 o
  -4  11  -6  2262.70  2246.93    63.26 o
 -12  12   6  6129.69  6408.69   233.73 o
   0  12  -6  6113.73  6315.72   160.36 o
  -3  12  -6  6309.76  6239.14   155.74 o
 -11  13   6   106.79    80.23    17.88 o
  -2  13  -6   108.59   114.81    12.84 o
  -8  13   6   434.94   429.95    35.77 o
 -13  14   6   625.90   582.48    41.03 o
  -1  14  -6   621.19   660.86    28.90 o
 -10  14   6  1464.62  1432.89    79.84 o
  -4  14  -6  1456.21  1460.79    50.05 o
 -15  15   6  4476.65  4463.48   193.57 o
   0  15  -6  4497.46  4182.72   131.51 o
 -12  15   6   109.99   144.12    19.85 o
  -3  15  -6   109.45   106.40    12.92 o
  -9  15   6   168.26   176.65    24.27 o
  -6  15  -6   171.08   197.81    37.82 o
 -14  16   6   343.13   322.75    31.38 o
  -2  16  -6   337.17   311.25    21.53 o
 -11  16   6  3635.03  3886.85   157.87 o
  -5  16  -6  3643.62  4109.72   200.12 o
  -8  16   6   513.15   448.25    37.46 o
 -16  17   6   184.12   188.88    25.70 o
  -1  17  -6   189.29   203.60    18.15 o
 -13  17   6  1832.62  1927.97    83.52 o
  -4  17  -6  1821.82  2029.70   132.12 o
 -10  17   6  1067.01  1099.63    69.64 o
  -7  17  -6  1050.63  1200.90   104.33 o
 -18  18   6  1562.64  1255.34   105.28 o
   0  18  -6  1579.98  1514.76   114.18 o
 -15  18   6   303.22   320.44    33.14 o
  -3  18  -6   304.97   333.69    28.03 o
 -12  18   6   560.87   503.92    50.49 o
  -6  18  -6   559.85   592.02    73.09 o
  -9  18   6  4456.89  3375.92   131.41 o
 -17  19   6   530.43   493.25    58.50 o
  -2  19  -6   518.03   504.40    40.86 o
 -14  19   6     6.99   -10.41     7.29 <
  -1  20  -6   559.70   594.62    45.43 o
 -16  20   6   678.52   706.08    67.65 o
 -18  21   6   419.34   351.20    50.22 o
  -6   7  -7   381.10   369.76    18.84 o
  -2   8  -7   257.40   227.96    27.26 o
  -5   8  -7  2369.02  2289.86    80.94 o
  -1   9  -7   560.26   656.01    49.60 o
  -4   9  -7   604.85   607.14    25.66 o
   0  10  -7  1802.79  1789.80    99.75 o
  -3  10  -7  3694.54  3631.21    91.98 o
  -2  11  -7   581.77   574.72    28.21 o
  -5  11  -7 10432.90 11150.10   313.58 o
  -1  12  -7   336.97   341.68    22.03 o
  -4  12  -7  1162.61  1069.29    41.45 o
   0  13  -7  3710.06  3749.39   113.32 o
  -3  13  -7  1285.28  1414.81    47.88 o
  -2  14  -7   966.45  1018.92    42.34 o
  -1  15  -7   586.47   613.03    33.33 o
  -4  15  -7   358.91   364.70    49.77 o
 -16  16   7  3592.50  3578.87   177.47 o
   0  16  -7  3555.19  3748.19   122.07 o
 -13  16   7    19.51    29.33    13.26 <
  -3  16  -7    20.26    16.64     8.20 <
 -15  17   7   757.61   748.57    67.68 o
  -2  17  -7   746.45   783.53    51.55 o
  -5  17  -7   739.41   855.12    87.63 o
 -17  18   7  1402.41  1289.99    71.72 o
  -1  18  -7  1410.36  1399.12    73.69 o
 -14  18   7  3272.54  2959.03   144.49 o
 -16  19   7   385.23   364.35    49.28 o
 -18  20   7   395.47   201.91    35.41 o
  -6   8  -8  3540.86  3869.71   114.21 o
  -2   9  -8   404.89   405.17    38.29 o
  -5   9  -8  6824.06  6644.40   133.97 o
  -1  10  -8   338.94   354.97    38.49 o
  -4  10  -8  1297.82  1291.21    42.40 o
   0  11  -8  3234.32  3407.05   151.17 o
  -3  11  -8   482.22   473.98    42.05 o
  -2  12  -8   515.39   639.24    50.16 o
  -1  13  -8   960.36  1000.42    53.86 o
   0  14  -8   204.96   171.90    30.43 o
  -3  14  -8   929.48  1009.56    68.25 o
  -2  15  -8  2218.17  2227.30    89.18 o
  -1  16  -8  1611.14  1590.39    75.25 o
   0  17  -8   212.65   177.18    33.98 o
  -3  17  -8   673.23   667.83    71.26 o
