data_global
_chemical_name_mineral 'Magnesite'
loop_
_publ_author_name
'Bromiley F A'
'Boffa Ballaran T'
'Langenhorst F'
'Seifert F'
_journal_name_full 'American Mineralogist'
_journal_volume 92 
_journal_year 2007
_journal_page_first 829
_journal_page_last 836
_publ_section_title
;
 Order and miscibility in the otavite - magnesite solid solution
 Sample: X_Mg = .5, synthesized at 650 C, 1 GPa, 120 h
;
_database_code_amcsd 0004337
_chemical_compound_source 'Synthetic'
_chemical_formula_sum '(Cd.5 Mg.5) C O3'
_cell_length_a 4.7824
_cell_length_b 4.7824
_cell_length_c 15.7082
_cell_angle_alpha 90
_cell_angle_beta 90
_cell_angle_gamma 120
_cell_volume 311.135
_exptl_crystal_density_diffrn      4.111
_symmetry_space_group_name_H-M 'R -3'
loop_
_space_group_symop_operation_xyz
  'x,y,z'
  '2/3+x,1/3+y,1/3+z'
  '1/3+x,2/3+y,2/3+z'
  'y,-x+y,-z'
  '2/3+y,1/3-x+y,1/3-z'
  '1/3+y,2/3-x+y,2/3-z'
  '-x+y,-x,z'
  '2/3-x+y,1/3-x,1/3+z'
  '1/3-x+y,2/3-x,2/3+z'
  '-x,-y,-z'
  '2/3-x,1/3-y,1/3-z'
  '1/3-x,2/3-y,2/3-z'
  '-y,x-y,z'
  '2/3-y,1/3+x-y,1/3+z'
  '1/3-y,2/3+x-y,2/3+z'
  'x-y,x,-z'
  '2/3+x-y,1/3+x,1/3-z'
  '1/3+x-y,2/3+x,2/3-z'
loop_
_atom_site_label
_atom_site_fract_x
_atom_site_fract_y
_atom_site_fract_z
_atom_site_occupancy
_atom_site_U_iso_or_equiv
CdA   0.00000   0.00000   0.00000   0.62900   0.01900
MgA   0.00000   0.00000   0.00000   0.37100   0.01900
MgB   0.00000   0.00000   0.50000   0.62900   0.01900
CdB   0.00000   0.00000   0.50000   0.37100   0.01900
C   0.00000   0.00000   0.24900   1.00000   0.02400
O   0.25400  -0.02300   0.25500   1.00000   0.02100
