#------------------------------------------------------------------------------
#$Date: 2016-02-14 16:26:36 +0200 (Sun, 14 Feb 2016) $
#$Revision: 176435 $
#$URL: svn://www.crystallography.net/cod/cif/1/51/16/1511673.cif $
#------------------------------------------------------------------------------
#
# This file is available in the Crystallography Open Database (COD),
# http://www.crystallography.net/
#
# All data on this site have been placed in the public domain by the
# contributors.
#
data_1511673
loop_
_publ_author_name
'Kubel, F.'
_publ_section_title
;
 Powder diffraction refinement of cubic and rhombohedral iron iodine
 boracite, Fe3 B7 O13 I
;
_journal_name_full               Ferroelectrics
_journal_page_first              61
_journal_page_last               65
_journal_paper_doi               10.1080/00150199408007695
_journal_volume                  160
_journal_year                    1994
_chemical_formula_sum            'B7 Fe3 I O13'
_chemical_name_systematic        'Fe3 (B7 O13 I)'
_space_group_IT_number           219
_symmetry_space_group_name_Hall  'F -4a 2 3'
_symmetry_space_group_name_H-M   'F -4 3 c'
_cell_angle_alpha                90
_cell_angle_beta                 90
_cell_angle_gamma                90
_cell_formula_units_Z            8
_cell_length_a                   12.22869
_cell_length_b                   12.22869
_cell_length_c                   12.22869
_cell_volume                     1828.689
_citation_journal_id_ASTM        FEROA8
_cod_data_source_file            boron4-x_332.cif
_cod_data_source_block           B7Fe3I1O13
_cod_original_formula_sum        'B7 Fe3 I1 O13'
_cod_database_code               1511673
loop_
_symmetry_equiv_pos_as_xyz
x,y,z
y+1/2,-x,-z
-x+1/2,-y+1/2,z
-y,x+1/2,-z
x,-y,-z
-y+1/2,-x,z
-x+1/2,y+1/2,-z
y,x+1/2,z
z,x,y
x+1/2,-z,-y
-z+1/2,-x+1/2,y
-x,z+1/2,-y
z,-x,-y
-x+1/2,-z,y
-z+1/2,x+1/2,-y
x,z+1/2,y
y,z,x
y,-z+1/2,-x+1/2
-z,-y,x+1/2
-y+1/2,z,-x+1/2
z+1/2,y,x
-y,-z,x
-z,y,-x+1/2
z+1/2,-y+1/2,-x+1/2
x,y+1/2,z+1/2
y+1/2,-x+1/2,-z+1/2
-x+1/2,-y+1,z+1/2
-y,x+1,-z+1/2
x,-y+1/2,-z+1/2
-y+1/2,-x+1/2,z+1/2
-x+1/2,y+1,-z+1/2
y,x+1,z+1/2
z,x+1/2,y+1/2
x+1/2,-z+1/2,-y+1/2
-z+1/2,-x+1,y+1/2
-x,z+1,-y+1/2
z,-x+1/2,-y+1/2
-x+1/2,-z+1/2,y+1/2
-z+1/2,x+1,-y+1/2
x,z+1,y+1/2
y,z+1/2,x+1/2
y,-z+1,-x+1
-z,-y+1/2,x+1
-y+1/2,z+1/2,-x+1
z+1/2,y+1/2,x+1/2
-y,-z+1/2,x+1/2
-z,y+1/2,-x+1
z+1/2,-y+1,-x+1
x+1/2,y,z+1/2
y+1,-x,-z+1/2
-x+1,-y+1/2,z+1/2
-y+1/2,x+1/2,-z+1/2
x+1/2,-y,-z+1/2
-y+1,-x,z+1/2
-x+1,y+1/2,-z+1/2
y+1/2,x+1/2,z+1/2
z+1/2,x,y+1/2
x+1,-z,-y+1/2
-z+1,-x+1/2,y+1/2
-x+1/2,z+1/2,-y+1/2
z+1/2,-x,-y+1/2
-x+1,-z,y+1/2
-z+1,x+1/2,-y+1/2
x+1/2,z+1/2,y+1/2
y+1/2,z,x+1/2
y+1/2,-z+1/2,-x+1
-z+1/2,-y,x+1
-y+1,z,-x+1
z+1,y,x+1/2
-y+1/2,-z,x+1/2
-z+1/2,y,-x+1
z+1,-y+1/2,-x+1
x+1/2,y+1/2,z
y+1,-x+1/2,-z
-x+1,-y+1,z
-y+1/2,x+1,-z
x+1/2,-y+1/2,-z
-y+1,-x+1/2,z
-x+1,y+1,-z
y+1/2,x+1,z
z+1/2,x+1/2,y
x+1,-z+1/2,-y
-z+1,-x+1,y
-x+1/2,z+1,-y
z+1/2,-x+1/2,-y
-x+1,-z+1/2,y
-z+1,x+1,-y
x+1/2,z+1,y
y+1/2,z+1/2,x
y+1/2,-z+1,-x+1/2
-z+1/2,-y+1/2,x+1/2
-y+1,z+1/2,-x+1/2
z+1,y+1/2,x
-y+1/2,-z+1/2,x
-z+1/2,y+1/2,-x+1/2
z+1,-y+1,-x+1/2
loop_
_atom_site_label
_atom_site_type_symbol
_atom_site_fract_x
_atom_site_fract_y
_atom_site_fract_z
_atom_site_occupancy
_atom_site_U_iso_or_equiv
Fe1 Fe+2 0.25 0.25 0 1 0.0
B1 B+3 0.25 0 0 1 0.0
I1 I-1 0.25 0.25 0.25 1 0.0
B2 B+3 0.0699 0.0699 0.0699 1 0.0
O1 O-2 0 0 0 1 0.0
O2 O-2 0.0182 0.0923 0.1836 1 0.0
