#------------------------------------------------------------------------------
#$Date: 2017-08-11 08:38:00 +0300 (Fri, 11 Aug 2017) $
#$Revision: 199718 $
#$URL: file:///home/coder/svn-repositories/cod/cif/1/54/67/1546778.cif $
#------------------------------------------------------------------------------
#
# This file is available in the Crystallography Open Database (COD),
# http://www.crystallography.net/. The original data for this entry
# were provided by IUCr Journals, http://journals.iucr.org/.
#
# The file may be used within the scientific community so long as
# proper attribution is given to the journal article from which the
# data were obtained.
#
data_1546778
loop_
_publ_author_name
'Pakhomova, Anna'
'Bykova, Elena'
'Bykov, Maxim'
'Glazyrin, Konstantin'
'Gasharova, Biliana'
'Liermann, Hanns-Peter'
'Mezouar, Mohamed'
'Gorelova, Liudmila'
'Krivovichev, Sergey'
'Dubrovinsky, Leonid'
_publ_section_title
;
 A closer look into close packing: pentacoordinated silicon in a
 high-pressure polymorph of danburite
;
_journal_issue                   5
_journal_name_full               IUCrJ
_journal_page_first
;
;
_journal_paper_doi               10.1107/S2052252517010612
_journal_volume                  4
_journal_year                    2017
_chemical_formula_moiety         'B2 Ca1 O8 Si2'
_chemical_formula_sum            'B4 Ca2 O16 Si4'
_chemical_formula_weight         491.76
_chemical_name_common            danburite
_chemical_name_systematic        danburite
_space_group_crystal_system      monoclinic
_space_group_IT_number           14
_space_group_name_Hall           '-P 2ybc'
_space_group_name_H-M_alt        'P 1 21/c 1'
_symmetry_space_group_name_Hall  '-P 2ybc'
_symmetry_space_group_name_H-M   'P 1 21/c 1'
_audit_creation_method           SHELXL-2014/7
_cell_angle_alpha                90
_cell_angle_beta                 89.75(3)
_cell_angle_gamma                90
_cell_formula_units_Z            2
_cell_length_a                   7.9989(17)
_cell_length_b                   7.8697(14)
_cell_length_c                   6.249(3)
_cell_measurement_pressure       32300000
_cell_measurement_reflns_used    326
_cell_measurement_temperature    293(2)
_cell_measurement_theta_max      10.4260
_cell_measurement_theta_min      1.6950
_cell_volume                     393.4(2)
_computing_cell_refinement
;
CrysAlisPro, Agilent Technologies,
Version 1.171.36.28 (release 01-02-2013 CrysAlis171 .NET)
(compiled Feb  1 2013,16:14:44)
;
_computing_data_collection
;
CrysAlisPro, Agilent Technologies,
Version 1.171.36.28 (release 01-02-2013 CrysAlis171 .NET)
(compiled Feb  1 2013,16:14:44)
;
_computing_data_reduction
;
CrysAlisPro, Agilent Technologies,
Version 1.171.36.28 (release 01-02-2013 CrysAlis171 .NET)
(compiled Feb  1 2013,16:14:44)
;
_computing_structure_refinement  'SHELXL-2014/7 (Sheldrick, 2014)'
_computing_structure_solution    'SHELXL-2014/7 (Sheldrick, 2014)'
_diffrn_ambient_pressure         32300000
_diffrn_ambient_temperature      293(2)
_diffrn_measured_fraction_theta_full 0.663
_diffrn_measured_fraction_theta_max 0.657
_diffrn_measurement_device_type
'esperanto-CrysAlisPro-abstract goniometer imported esperanto images'
_diffrn_measurement_method       '\w scans'
_diffrn_radiation_type           synchrotron
_diffrn_radiation_wavelength     0.29024
_diffrn_reflns_av_R_equivalents  0.0536
_diffrn_reflns_av_unetI/netI     0.0587
_diffrn_reflns_Laue_measured_fraction_full 0.663
_diffrn_reflns_Laue_measured_fraction_max 0.657
_diffrn_reflns_limit_h_max       9
_diffrn_reflns_limit_h_min       -9
_diffrn_reflns_limit_k_max       9
_diffrn_reflns_limit_k_min       -9
_diffrn_reflns_limit_l_max       6
_diffrn_reflns_limit_l_min       -6
_diffrn_reflns_number            940
_diffrn_reflns_point_group_measured_fraction_full 0.663
_diffrn_reflns_point_group_measured_fraction_max 0.657
_diffrn_reflns_theta_full        10.040
_diffrn_reflns_theta_max         10.458
_diffrn_reflns_theta_min         1.701
_diffrn_source                   synchrotron
_diffrn_source_type              'PETRA III, Beamline P02.2'
_exptl_absorpt_coefficient_mu    0.221
_exptl_crystal_colour            colorless
_exptl_crystal_density_diffrn    4.152
_exptl_crystal_description       'plate crystal'
_exptl_crystal_F_000             488
_exptl_crystal_size_max          0.020
_exptl_crystal_size_mid          0.015
_exptl_crystal_size_min          0.010
_refine_diff_density_max         1.185
_refine_diff_density_min         -0.983
_refine_diff_density_rms         0.296
_refine_ls_extinction_method     none
_refine_ls_goodness_of_fit_ref   1.175
_refine_ls_hydrogen_treatment    undef
_refine_ls_matrix_type           full
_refine_ls_number_parameters     68
_refine_ls_number_reflns         524
_refine_ls_number_restraints     0
_refine_ls_restrained_S_all      1.175
_refine_ls_R_factor_all          0.1252
_refine_ls_R_factor_gt           0.0979
_refine_ls_shift/su_max          0.000
_refine_ls_shift/su_mean         0.000
_refine_ls_structure_factor_coef Fsqd
_refine_ls_weighting_details
'w=1/[\s^2^(Fo^2^)+(0.1924P)^2^+3.6413P] where P=(Fo^2^+2Fc^2^)/3'
_refine_ls_weighting_scheme      calc
_refine_ls_wR_factor_gt          0.2941
_refine_ls_wR_factor_ref         0.3095
_reflns_Friedel_coverage         0.000
_reflns_number_gt                408
_reflns_number_total             524
_reflns_threshold_expression     'I > 2\s(I)'
_cod_data_source_file            lt5006.cif
_cod_data_source_block           danburite-IV_32.3GPa
_cod_database_code               1546778
_shelx_shelxl_version_number     2014/7
_shelx_space_group_comment
;
The symmetry employed for this shelxl refinement is uniquely defined
by the following loop, which should always be used as a source of
symmetry information in preference to the above space-group names.
They are only intended as comments.
;
_shelx_res_file
;

    shelx.res created by SHELXL-2014/7


TITL shelxt_a.res in P2(1)/c
REM Old TITL shelxt_a.res in P1

REM SHELXT solution in P2(1)/c
REM R1 0.275,  Rweak 0.006,  Alpha 0.160,  Orientation a'=c, b'=-b, c'=a
REM Formula found by SHELXT:  O8 Si2 Ca

CELL  0.29056   7.9989   7.8697   6.2491   90.000   89.751   90.000
ZERR    2.000   0.0017   0.0014   0.0028    0.000    0.031    0.000
LATT  1
SYMM -X, 1/2+Y, 1/2-Z
SFAC B O SI CA
DISP    Ca    0.04254    0.05130       101.42
DISP    O    -0.00099    0.00082         6.66
DISP    Si    0.00828    0.01077        28.22
DISP    B    -0.00051    0.00009         3.17
UNIT 8 32 8  4
L.S. 10
BOND $H
LIST 6
omit -6 2 1
omit -1 5 3
omit 0 6 6
omit -1 7 3
omit -3 7 2
FMAP 2
acta
PLAN 20

WGHT    0.192400    3.641300
FVAR       0.58914
CA1   4    0.750403    0.111166    0.746456    11.00000    0.03505    0.01113 =
         0.02744   -0.00086   -0.00587   -0.00007
SI1   3    0.074622    0.235647    0.007192    11.00000    0.03557    0.01037 =
         0.02341   -0.00042   -0.00611   -0.00231
SI2   3    0.426068    0.235049    0.007239    11.00000    0.03575    0.00718 =
         0.02680   -0.00048   -0.00646   -0.00101
O1    2    0.596219    0.133577    0.067012    11.00000    0.02486
O2    2   -0.095807    0.134272    0.066256    11.00000    0.02639
O3    2    0.749157    0.093052    0.377659    11.00000    0.02858
O4    2    0.249050    0.150015    0.063257    11.00000    0.02463
O5    2    0.424528    0.362502    0.249002    11.00000    0.02720
O6    2    0.074610    0.136909   -0.251548    11.00000    0.02580
O7    2    0.441719    0.409074   -0.125761    11.00000    0.02424
O8    2    0.058739    0.408733   -0.126302    11.00000    0.02497
B1    1    0.595104    0.045683    0.268818    11.00000    0.02610
B2    1   -0.093859    0.046784    0.271623    11.00000    0.02859
HKLF 4

REM  shelxt_a.res in P2(1)/c
REM R1 =  0.0979 for     408 Fo > 4sig(Fo)  and  0.1252 for all     524 data
REM     68 parameters refined using      0 restraints

END

WGHT      0.1865      3.3342

REM Highest difference peak  1.185,  deepest hole -0.983,  1-sigma level  0.296
Q1    1   0.6978  0.1136  0.7813  11.00000  0.05    1.18
Q2    1   0.5317  0.1358  0.1073  11.00000  0.05    1.17
Q3    1   0.6955  0.1082  0.4217  11.00000  0.05    1.09
Q4    1   0.7865  0.1159  0.7203  11.00000  0.05    1.08
Q5    1  -0.0025  0.4173 -0.0998  11.00000  0.05    1.07
Q6    1   0.3554  0.4143 -0.1015  11.00000  0.05    1.05
Q7    1  -0.1475  0.1381  0.0968  11.00000  0.05    1.05
Q8    1   0.1693  0.2220 -0.0854  11.00000  0.05    1.05
Q9    1   0.3628  0.2536  0.1268  11.00000  0.05    1.04
Q10   1  -0.0402  0.1586  0.0100  11.00000  0.05    0.97
Q11   1   0.3778  0.3661  0.2601  11.00000  0.05    0.96
Q12   1   0.1264  0.1374 -0.2696  11.00000  0.05    0.94
Q13   1   0.1080  0.4064 -0.1318  11.00000  0.05    0.94
Q14   1   0.3070  0.1664  0.0063  11.00000  0.05    0.88
Q15   1   0.0002  0.2530  0.1345  11.00000  0.05    0.88
Q16   1   0.6354  0.1284  0.0310  11.00000  0.05    0.86
Q17   1   0.0281  0.1348 -0.2349  11.00000  0.05    0.79
Q18   1   0.5321  0.0708  0.3243  11.00000  0.05    0.76
Q19   1   0.4887  0.3490  0.2030  11.00000  0.05    0.74
Q20   1   0.6313  0.0442  0.2461  11.00000  0.05    0.74
;
_shelx_res_checksum              48898
_shelx_hkl_file
;
  -8   0   0   27.76    2.61
  -9   0   0   -2.91    1.24
  -2  -1   0    0.10    0.49
   2   1   0    0.09    0.26
   3   1   0 4115.02   26.82
  -3  -1   0 4077.95   25.91
   4   1   0   -1.84    0.67
  -4  -1   0    0.48    1.95
   5   1   0  368.70    9.55
  -5  -1   0  369.83    9.30
   6   1   0    0.49    1.03
  -6  -1   0   -1.43    0.87
  -7  -1   0  103.35    4.78
  -8  -1   0    0.73    0.73
  -9  -1   0  189.62    6.72
  -1  -2   0   -0.24    0.49
   1   2   0   -0.13    0.34
  -2  -2   0  592.33   10.78
   2   2   0  586.57   11.07
   3   2   0   -0.14    0.51
  -3  -2   0   -0.24    0.65
  -4  -2   0  119.64    5.31
   4   2   0  122.61    5.36
   5   2   0    0.03    0.65
  -5  -2   0    0.99    0.69
  -6  -2   0  165.05    6.08
   6   2   0  198.68    7.47
   7   2   0   -1.97    1.07
  -7  -2   0    0.31    0.48
   8   2   0   98.61    5.88
  -8  -2   0  122.50    4.82
  -9  -2   0   -0.62    0.67
   9   2   0   -1.26    1.19
  -1  -3   0 3592.40   34.31
   1   3   0 3638.62   35.84
   2   3   0   -0.16    0.81
  -2  -3   0    0.42    0.74
   3   3   0   21.90    3.31
  -3  -3   0   23.71    3.28
   4   3   0   -0.47    0.61
  -4  -3   0   -0.14    0.64
  -5  -3   0  481.34   12.30
   5   3   0  479.53   12.53
  -6  -3   0   -0.90    0.95
   6   3   0   -1.28    1.06
  -7  -3   0  451.08   10.79
   7   3   0  457.56   11.72
  -8  -3   0   -2.24    1.01
   8   3   0   -2.20    1.27
   9   3   0    7.91    1.85
  -9  -3   0    8.97    1.47
   1   4   0    0.55    2.57
  -1  -4   0    5.97    3.79
   2   4   0 1160.23   20.05
  -2  -4   0 1154.77   19.19
   3   4   0    1.08    1.42
  -3  -4   0   -0.05    0.87
   4   4   0  692.20   16.63
  -4  -4   0  717.00   15.30
  -5  -4   0    0.59    0.84
   5   4   0   -0.57    0.81
  -6  -4   0  194.39    7.14
   6   4   0  199.12    8.60
   7   4   0  138.51   11.98
  -7  -4   0    0.59    0.82
  -8  -4   0  226.65    7.76
   8   4   0   95.77   10.66
   9   4   0    1.07    0.73
  -9  -4   0   -2.20    1.10
   1   5   0  362.64   15.41
  -1  -5   0  351.32   16.99
  -2  -5   0    0.26    0.81
   2   5   0   -0.08    0.83
  -3  -5   0  551.11   14.87
   3   5   0  582.44   16.38
  -4  -5   0   -0.31    1.09
   4   5   0   -0.15    1.08
   5   5   0  116.49    6.51
  -5  -5   0  118.17    6.65
  -6  -5   0   -0.33    0.94
   6   5   0    2.17    1.37
   7   5   0    0.88    1.09
   8   5   0   -1.05    1.02
  -8  -5   0   -0.10    0.82
   2   6   0   84.95    6.58
  -2  -6   0   89.61    6.98
  -3  -6   0   -0.65    1.49
   3   6   0   -0.55    1.30
  -4  -6   0   45.66    4.55
   4   6   0   40.58    4.53
  -5  -6   0    0.22    1.21
   5   6   0    2.18    1.94
   6   6   0  396.95   14.09
  -6  -6   0  381.42   14.63
   7   6   0    1.88    1.86
  -7  -6   0    0.57    0.97
   2   7   0    0.39    1.29
  -2  -7   0   -0.74    2.50
  -3  -7   0 2771.48   41.67
   3   7   0 2779.71   41.64
  -4  -7   0    2.70    2.45
   4   7   0    3.28    2.40
  -5  -7   0    1.95    1.48
   5   7   0    1.53    1.37
   6   7   0   -0.40    1.20
  -6  -7   0    3.00    2.02
  -7  -7   0  107.79    7.60
   7   7   0   93.28    8.12
   3   8   0   -0.14    1.48
  -3  -8   0   -0.01    2.16
  -4  -8   0    4.67    1.54
   4   8   0    9.33    2.38
   5   8   0   -2.60    2.05
  -5  -8   0    0.28    1.35
  -4  -9   0  364.53   23.20
   4   9   0    1.51    1.30
  -9   0   1    0.32    0.40
  -8   0   1    0.25    0.40
  -6   0   1   -0.30    0.38
  -5   0   1   -0.06    0.28
  -9   1   1   86.17    3.48
  -9  -1   1   79.91    3.33
  -8  -1   1    3.42    0.80
  -7  -1   1   -0.38    0.46
   7   1  -1   -0.45    0.47
   6   1  -1    5.48    0.95
  -6  -1   1    3.58    0.80
  -5  -1   1  144.09    4.20
   5   1  -1  133.76    4.57
  -4  -1   1   97.26    6.28
   4   1  -1  121.68    6.14
   3   1  -1 1260.77   11.53
  -3  -1   1 1283.20   11.38
   2   1  -1    8.68    0.81
   0   1   1    3.43    0.61
   0  -1  -1    3.97    0.75
  -1  -1  -1   75.29    3.73
   1   1   1   78.73    4.01
  -2  -1  -1   12.08    1.82
   2   1   1   12.01    1.84
   3   1   1 1601.29   24.41
  -3  -1  -1 1598.03   23.05
  -4  -1  -1   94.05    6.21
  -5  -1  -1  131.10    6.91
  -6  -1  -1    6.40    1.49
  -7  -1  -1    0.43    0.73
  -8  -1  -1   99.73    7.82
  -9  -2   1   16.98    1.84
   9   2  -1   14.75    2.03
   8   2  -1   21.66    2.19
  -8  -2   1   23.36    1.98
  -7  -2   1    8.78    1.22
   7   2  -1    6.86    1.21
   6   2  -1 7080.02   34.52
  -6  -2   1 7016.68   36.30
   5   2  -1   13.24    1.98
  -5  -2   1   11.42    1.42
  -4  -2   1  227.10    6.71
   4   2  -1  246.85    7.10
   3   2  -1 1573.03   17.10
  -3  -2   1 1567.57   16.35
  -2   2   1  573.97    8.02
   1  -2  -1   39.68    2.38
  -1   2   1   43.51    2.30
   0   2   1  105.64    3.85
   0  -2  -1   97.49    3.87
   1   2   1   43.14    2.75
  -1  -2  -1   42.66    2.78
   2   2   1  616.16   13.36
  -2  -2  -1  621.01   12.85
   3   2   1 1798.38   24.00
  -3  -2  -1 1800.67   24.92
  -4  -2  -1  221.48    8.99
   4   2   1  246.41    9.54
   5   2   1   10.75    2.21
  -5  -2  -1   41.21    4.35
   6   2   1   64.95    5.34
  -6  -2  -1   79.54    5.49
  -7  -2  -1   10.53    1.92
   7   2   1    9.66    2.17
  -8  -2  -1   23.36    2.73
  -9  -2  -1   17.45    2.43
   9   3  -1   39.30    3.19
  -9  -3   1   39.25    3.06
   8   3  -1   -0.03    0.65
  -8  -3   1    0.37    0.52
   7   3  -1   24.56    2.54
  -7  -3   1   31.56    2.67
   6   3  -1  165.98    6.11
  -6  -3   1  168.66    6.24
   5   3  -1   21.07    2.37
  -5  -3   1   20.38    2.22
  -4  -3   1   29.59    4.35
   4   3  -1  120.61    8.17
  -3  -3   1  779.64   14.80
   3   3  -1  773.80   14.59
  -2   3   1    7.59    1.51
   1  -3  -1   99.15    5.38
  -1   3   1   95.91    5.12
   0  -3  -1 1438.56   18.48
   0   3   1 1486.03   18.41
   1   3   1  108.92    5.32
  -1  -3  -1  103.22    5.21
  -2  -3  -1    7.04    1.47
   2   3   1    7.45    1.64
   3   3   1  800.52   17.68
  -3  -3  -1  830.69   17.35
   4   3   1   28.06    3.64
  -4  -3  -1   27.52    3.35
  -5  -3  -1   19.61    2.45
   5   3   1   18.95    2.73
   6   3   1  170.51    8.48
  -6  -3  -1  199.24    9.14
   7   3   1   64.71    6.55
  -7  -3  -1   27.73    3.14
  -8  -3  -1    0.34    0.74
   8   3   1   -1.56    1.15
   9   3   1   30.50    4.08
  -9  -3  -1   37.18    3.44
  -9  -4   1    6.99    1.45
   9   4  -1    8.60    1.82
  -8  -4   1   27.17    2.70
   8   4  -1   25.40    2.97
   7   4  -1    4.15    1.22
  -7  -4   1    6.00    1.47
  -6  -4   1   15.27    2.14
   6   4  -1   12.50    1.91
   5   4  -1  101.21    5.72
  -5  -4   1  109.71    5.40
   4   4  -1   82.32    5.32
  -4  -4   1   71.73    4.65
   3   4  -1  191.92    7.70
  -1   4   1   44.26    3.67
   1  -4  -1   42.86    3.49
   0  -4  -1  381.14   12.20
   0   4   1  389.11   12.00
  -1  -4  -1   63.43    7.10
   1   4   1   69.70    7.86
   2   4   1  409.57   12.81
  -2  -4  -1  414.95   12.74
   3   4   1  219.20   10.02
  -3  -4  -1  215.37    9.48
   4   4   1   61.03    5.53
  -4  -4  -1   60.51    5.66
   5   4   1   95.75    6.73
  -5  -4  -1  114.22    7.12
   6   4   1   13.91    2.51
  -6  -4  -1   10.99    2.03
   7   4   1    8.17    2.84
  -7  -4  -1   50.14    5.61
  -8  -4  -1   22.86    3.02
   8   4   1   13.07    3.41
  -9  -4  -1    5.96    1.58
   9   4   1    4.99    2.16
  -8  -5   1   34.16    3.50
   8   5  -1   32.95    4.05
  -7  -5   1   21.12    2.83
   7   5  -1   13.05    2.94
   6   5  -1   91.91    6.55
  -6  -5   1  103.92    5.65
  -5  -5   1  157.12    7.05
   5   5  -1  167.53    7.11
   4   5  -1   18.50    2.38
  -4  -5   1   21.09    2.68
  -1   5   1  269.93   10.78
   1  -5  -1  268.37   10.63
   0  -5  -1  689.68   15.65
   0   5   1  687.97   15.49
  -1  -5  -1  323.48   11.51
   1   5   1  297.06   10.76
   2   5   1   76.27    6.13
  -2  -5  -1   74.78    5.76
  -3  -5  -1  221.31   11.65
   3   5   1  214.79   11.06
   4   5   1   22.50    3.69
  -4  -5  -1   39.81    7.18
  -5  -5  -1  189.79    8.97
   5   5   1  179.64    9.21
   6   5   1   91.27    6.61
  -6  -5  -1   88.92    6.24
   7   5   1   17.88    3.53
  -7  -5  -1   16.15    2.93
   8   5   1   93.91   10.98
  -8  -5  -1   11.95    5.87
  -7  -6   1    3.66    1.45
   7   6  -1    2.06    1.40
  -6  -6   1  165.98    8.28
   6   6  -1  112.91    9.44
  -5  -6   1   46.32    3.81
   5   6  -1   27.45    2.66
   4   6  -1   44.27    4.12
  -4  -6   1   56.71    5.61
  -1   6   1   91.97    6.72
   0  -6  -1  728.78   18.35
   0   6   1  741.58   18.25
   1   6   1  124.38    8.08
  -1  -6  -1  203.23   10.94
  -2  -6  -1  115.02   10.11
   2   6   1   85.22    6.46
   3   6   1 1024.85   25.88
  -3  -6  -1 1029.25   24.95
   4   6   1   45.10    5.20
  -4  -6  -1   47.71    5.36
  -5  -6  -1   46.64    5.45
   5   6   1   56.04    6.11
  -6  -6  -1  215.67   10.44
   6   6   1  223.27   11.03
   7   6   1    6.73    2.52
  -7  -6  -1    3.68    1.43
   6   7  -1   -0.05    0.90
  -6  -7   1   -0.07    1.09
   5   7  -1   19.49    7.02
  -5  -7   1    4.85    1.65
   0  -7  -1   19.71    3.51
   0   7   1   19.92    3.34
   1   7   1   24.55    4.37
  -1  -7  -1   16.52    3.63
  -2  -7  -1   75.61    5.91
   2   7   1   60.55    4.84
   3   7   1  516.55   20.64
  -3  -7  -1  524.41   19.63
  -4  -7  -1   17.42    3.36
   4   7   1   15.64    2.61
   5   7   1    5.60    1.72
  -5  -7  -1    7.30    2.14
   6   7   1    0.29    1.17
  -6  -7  -1   -1.51    1.63
   5   8  -1   21.09   10.09
   0   8   1    5.61    2.16
   1   8   1   45.41    5.47
  -1  -8  -1   37.60    4.21
  -2  -8  -1  370.09   17.58
   2   8   1  282.71   14.06
  -3  -8  -1  163.06   10.48
   3   8   1  160.35   11.03
   4   8   1   99.76    9.55
  -4  -8  -1   97.86    8.88
  -5  -8  -1   13.12    3.21
   5   8   1   15.87    3.50
   1   9   1  310.45   16.66
  -1  -9  -1  306.61   16.94
   2   9   1  169.72   13.14
  -2  -9  -1  157.55   11.17
   3   9   1   32.43    5.18
  -3  -9  -1   30.96    4.99
  -9   0   2   16.61    1.24
  -8   0   2  175.24    4.09
  -7   0   2   18.65    1.16
  -9   1   2    0.22    0.25
  -9  -1   2    0.32    0.44
  -8  -1   2   68.48    3.11
   8   1  -2   79.17    3.84
   7   1  -2   54.60    2.51
  -7  -1   2   72.04    2.68
  -6  -1   2   11.67    1.09
   6   1  -2   16.27    1.36
   5   1  -2  614.74    8.14
   4   1  -2   38.82    1.89
   1  -1  -2 1226.65   15.22
  -9  -2   2   -0.07    0.53
  -9   2   2    0.29    0.27
  -8  -2   2   63.67    2.88
   8   2  -2   53.57    3.21
  -7  -2   2    6.42    0.97
   7   2  -2    6.24    1.05
  -6  -2   2  562.76    9.33
   6   2  -2  561.69    9.61
   5   2  -2   20.25    1.81
   4   2  -2   58.13    2.69
  -2   2   2  219.57    5.26
   2  -2  -2  222.77    5.09
  -1   2   2    0.96    0.79
   1  -2  -2    1.13    0.79
   0   2   2 3608.52   29.94
   0  -2  -2 3598.80   31.38
   1   2   2    2.32    7.02
  -1  -2  -2    0.14    0.89
   2   2   2  357.38   13.33
  -2  -2  -2  361.11   12.23
  -3  -2  -2   64.11    5.37
   3   2   2   62.77    6.06
   4   2   2   56.06    6.22
  -4  -2  -2   70.42    6.52
  -5  -2  -2   23.86    3.55
   5   2   2   20.97    4.02
  -6  -2  -2  722.97   18.82
  -7  -2  -2    7.84    2.02
  -9  -3   2  297.35    7.12
   9   3  -2  286.44    8.93
   8   3  -2   14.93    1.79
  -8  -3   2   14.41    1.60
   7   3  -2   49.21    3.46
  -7  -3   2   52.90    3.53
  -6  -3   2   30.69    2.59
   6   3  -2   35.50    2.69
  -5   3   2   34.35    1.86
   5   3  -2   39.12    2.89
  -4   3   2   43.62    2.07
   3  -3  -2 2793.92   19.17
  -3   3   2 2781.18   19.33
   2  -3  -2   48.93    2.86
  -2   3   2   52.77    2.85
  -1   3   2   14.05    1.88
   1  -3  -2   11.47    1.60
   0   3   2  639.45   13.01
   0  -3  -2  614.44   12.61
   1   3   2   15.22    2.24
  -1  -3  -2   14.75    2.22
   2   3   2   64.51    5.59
  -2  -3  -2   62.95    5.24
   3   3   2 4371.58   46.63
  -3  -3  -2 4351.97   49.47
   4   3   2   61.43    6.29
  -4  -3  -2   56.10    5.79
   5   3   2   36.96    4.95
  -5  -3  -2   41.62    5.07
  -6  -3  -2   19.07    1.90
   6   3   2   48.65    2.46
  -7  -3  -2   72.63    7.54
   7   3   2   49.73    7.84
   8   3   2   11.75    3.05
  -8  -3  -2   13.42    2.77
  -9  -3  -2  241.88   11.45
  -8  -4   2   41.18    2.97
   8   4  -2   38.29    3.23
  -7  -4   2    2.76    1.06
   7   4  -2    2.43    1.32
   6   4  -2  649.64   13.64
   5   4  -2    9.82    1.76
  -5   4   2    7.58    1.03
  -4   4   2   71.71    3.47
  -3   4   2  644.42   10.59
   3  -4  -2  633.41   11.80
   2  -4  -2   23.60    2.22
  -2   4   2   23.71    2.09
  -1   4   2    9.18    1.83
   1  -4  -2    8.58    1.62
   0   4   2 2565.88   28.60
   0  -4  -2 2561.18   27.86
   1   4   2   12.24    3.50
  -1  -4  -2   10.18    3.04
   2   4   2   25.85    3.54
  -2  -4  -2   30.77    4.10
   3   4   2  882.75   22.48
  -3  -4  -2  882.10   21.71
  -4  -4  -2  107.83    8.22
   4   4   2  109.69    8.79
  -5  -4  -2   13.93    3.39
   5   4   2   13.16    3.26
   6   4   2  822.63   21.88
  -6  -4  -2  857.75   21.29
  -7  -4  -2    3.20    1.75
   7   4   2    0.51    2.22
  -8  -4  -2   42.92    4.51
   8   4   2   30.56    4.88
  -8  -5   2    3.16    1.14
   8   5  -2    3.74    1.24
   7   5  -2    3.16    1.11
  -7  -5   2    4.38    1.60
   6   5  -2   42.54    3.68
   5   5  -2  109.71    5.78
  -4   5   2   -0.33    0.79
  -3   5   2 2802.06   26.75
  -2   5   2    3.02    0.93
   2  -5  -2    2.99    1.12
   1  -5  -2  205.21    7.99
  -1   5   2  203.55    7.91
   0  -5  -2  361.38   11.38
   0   5   2  380.37   12.51
  -1  -5  -2  212.14    9.51
   1   5   2  223.69   10.00
  -2  -5  -2    2.37    1.51
   2   5   2    1.35    1.37
   3   5   2 3903.22   48.31
  -3  -5  -2 3904.33   52.92
  -4  -5  -2    0.96    1.87
   4   5   2    0.42    1.44
   5   5   2  159.32   10.91
  -5  -5  -2  149.96    9.79
  -6  -5  -2   50.79    5.08
   6   5   2   54.91    5.58
  -7  -5  -2    4.11    1.53
   7   5   2   -0.04    1.97
   8   5   2  133.10    9.56
  -8  -5  -2    4.99    1.82
   7   6  -2   12.08    2.27
   6   6  -2   18.23    3.64
  -4   6   2  159.55    6.82
  -3   6   2   19.97    2.31
  -2   6   2  598.15   13.38
   2  -6  -2  595.17   15.11
  -1   6   2    0.17    0.83
   1  -6  -2    0.69    0.99
   0  -6  -2  198.13    9.68
   0   6   2  191.46    9.55
   1   6   2    1.05    1.26
  -1  -6  -2    0.15    1.26
  -2  -6  -2  793.34   21.41
   2   6   2  809.23   21.25
   3   6   2   27.71    4.35
  -3  -6  -2   25.93    4.14
   4   6   2  207.21   12.24
  -4  -6  -2  217.87   12.42
  -5  -6  -2    9.24    1.47
   5   6   2  -10.00    5.27
   6   6   2   41.42    5.53
  -6  -6  -2   45.98    5.71
  -7  -6  -2   14.46    2.90
   7   6   2   21.20    4.24
  -3   7   2  191.12   10.65
   2  -7  -2   -0.32    1.30
  -2   7   2    1.06    1.05
   1  -7  -2  316.18   11.36
  -1   7   2  296.72   10.15
   0  -7  -2   22.90    3.17
   0   7   2   25.66    3.57
  -1  -7  -2  408.43   15.41
   1   7   2  406.78   15.80
  -2  -7  -2    1.69    1.73
   2   7   2    2.56    1.76
  -3  -7  -2   42.38    6.24
   3   7   2  180.23   11.88
  -4  -7  -2   43.47    6.04
   4   7   2   46.63    6.65
  -5  -7  -2  848.63   92.08
   5   7   2  923.23   91.03
   6   7   2   -3.18    3.13
  -6  -7  -2   -5.82    3.14
  -2   8   2  333.28   12.90
  -1   8   2    4.73    1.27
   1  -8  -2    4.06    1.58
   0  -8  -2   67.62    6.12
   0   8   2   66.78    6.12
   1   8   2    3.62    1.86
  -1  -8  -2    1.10    1.67
  -2  -8  -2  397.72   16.63
   2   8   2  392.00   16.96
  -3  -8  -2   16.01    3.94
   3   8   2   15.03    7.87
  -4  -8  -2  344.76   16.51
   4   8   2  304.52   16.71
   5   8   2    8.06    4.29
  -5  -8  -2   -1.72    2.36
  -2   9   2    3.55    1.82
  -1   9   2   18.10    3.80
   1  -9  -2   20.76    4.30
   0  -9  -2  289.53   13.40
   0   9   2  290.37   13.32
   1   9   2   22.44    4.38
  -1  -9  -2   18.59    3.64
   2   9   2    4.80    2.42
  -2  -9  -2    5.67    2.26
   3   9   2    7.92    1.91
  -3  -9  -2   12.85    3.63
   9   1  -3   24.20    1.36
   8   1  -3    1.18    0.68
   7   1  -3   66.78    2.57
   6   1  -3   89.26    2.98
   8   2  -3   46.88    2.71
   7   2  -3   19.87    1.69
   6   2  -3  808.50   10.67
   4  -2  -3  190.99    3.57
   3  -2  -3   92.39    3.04
  -2   2   3  157.42    5.91
   2  -2  -3  160.80    5.29
  -1   2   3   -0.81    1.26
   1  -2  -3    0.78    0.48
   0  -2  -3 8605.66   56.28
   0   2   3 8634.70   57.76
  -1  -2  -3    0.52    2.01
   8   3  -3    3.16    0.98
   7   3  -3   57.29    3.19
   6   3  -3   43.28    2.75
  -5   3   3   -0.05    0.32
   4  -3  -3   -0.03    0.37
  -4   3   3    0.41    0.44
  -3   3   3   14.24    1.57
   3  -3  -3   12.28    1.24
   2  -3  -3    5.58    0.97
  -2   3   3    5.40    1.00
  -1   3   3   61.46    3.79
   1  -3  -3   56.50    3.65
   0   3   3  288.96   10.55
   0  -3  -3  284.01   10.73
   1   3   3   64.77    6.13
  -1  -3  -3   64.67    6.34
   2   3   3   43.72    9.35
  -2  -3  -3    9.24    2.83
   3   3   3   20.18    4.24
  -3  -3  -3   18.80    3.74
   4   3   3    0.90    1.91
  -4  -3  -3    1.66    1.86
   5   3   3    5.28    4.61
  -5  -3  -3    3.43    2.48
   6   3   3   73.36    7.61
  -6  -3  -3   75.58    6.92
  -7  -3  -3   66.72    6.60
  -8   4   3    0.91    0.44
   8   4  -3 5845.76   38.04
   7   4  -3   20.30    2.12
  -7   4   3    8.96    0.86
  -6   4   3    0.38    0.68
  -5   4   3   11.72    1.18
   4  -4  -3  101.06    3.79
  -4   4   3  112.98    4.05
  -3   4   3    0.99    0.48
   3  -4  -3    1.99    0.74
  -2   4   3   52.97    3.42
   2  -4  -3   48.37    3.00
  -1   4   3   66.49    4.17
   1  -4  -3   67.91    4.22
   0   4   3    0.68    0.75
   0  -4  -3   -0.38    1.15
   1   4   3   84.61    6.96
  -1  -4  -3   72.35    6.32
   2   4   3   61.07    5.98
  -2  -4  -3   66.12    6.84
   3   4   3    9.02    7.14
  -3  -4  -3    2.23    1.65
   4   4   3  171.76   12.20
  -4  -4  -3  165.92   12.00
  -5  -4  -3   17.21    4.02
   5   4   3   17.19    4.12
   6   4   3   29.42    7.89
  -6  -4  -3   17.14    6.26
   7   4   3  176.82   14.93
  -7  -4  -3   22.32    4.33
  -8  -4  -3    1.00    1.27
   8   4   3    2.77    1.53
   7   5  -3  147.61    5.78
  -7   5   3  140.51    3.91
  -6   5   3    0.36    0.39
  -5   5   3   57.07    3.03
   4  -5  -3   32.12    2.53
  -4   5   3   48.20    3.29
   3  -5  -3  362.39    9.03
  -3   5   3  372.35    9.25
   2  -5  -3   23.79    2.40
  -2   5   3   29.38    2.83
  -1   5   3 9750.70   60.79
   1  -5  -3 9999.00   50.59
   0   5   3   10.36    4.32
   0  -5  -3    9.06    3.92
   1   5   3  399.10   13.99
  -1  -5  -3  442.11   15.64
   2   5   3   35.87    4.93
  -2  -5  -3   37.64    5.11
   3   5   3  572.42   21.28
  -3  -5  -3  553.27   20.68
   4   5   3   40.57    5.58
  -4  -5  -3   50.26    6.87
   5   5   3  140.69   14.58
  -5  -5  -3  176.20   21.09
  -6  -5  -3    5.12    3.06
   6   5   3    0.73    1.46
   7   5   3  220.01   14.11
  -7  -5  -3  205.59   13.01
  -6   6   3  356.26    7.89
  -5   6   3   24.56    2.00
  -4   6   3   14.54    1.66
   3  -6  -3   67.36    4.72
  -3   6   3   69.19    4.54
   2  -6  -3   45.35    3.82
  -2   6   3   51.46    3.94
   1  -6  -3   37.59    3.38
  -1   6   3   38.96    3.68
   0  -6  -3 1901.68   29.18
   0   6   3 1913.95   29.12
   1   6   3   40.52    4.86
  -1  -6  -3   38.10    4.65
   2   6   3   46.32    3.65
  -2  -6  -3   65.85    7.23
   3   6   3   91.72    8.23
  -3  -6  -3  108.38    9.84
   4   6   3   25.26   11.95
  -4  -6  -3   18.84   13.07
   5   6   3   30.94    5.19
  -5  -6  -3   35.66    5.82
   6   6   3  595.73   22.53
  -6  -6  -3  551.89   22.75
  -5   7   3    2.76    1.23
  -4   7   3    2.79    0.94
   3  -7  -3   45.67    3.83
  -3   7   3   41.44    3.49
   2  -7  -3   84.89    4.83
  -2   7   3   85.64    5.28
   1  -7  -3  165.28   13.09
  -1   7   3  178.53   12.54
   0  -7  -3  233.03   10.32
   0   7   3  244.81   10.77
   1   7   3    1.73    1.72
  -1  -7  -3    3.78    2.34
   2   7   3  111.53    8.58
  -2  -7  -3   94.64    7.38
   3   7   3   54.77    4.03
  -3  -7  -3   50.26    5.86
  -4  -7  -3    4.71    2.22
   4   7   3    3.85    1.98
   5   7   3    4.57    2.28
  -5  -7  -3    3.42    2.33
  -4   8   3   33.19    2.86
   3  -8  -3  358.81   13.33
  -3   8   3  323.88    9.70
   2  -8  -3   14.64    2.70
  -2   8   3   21.55    2.24
   1  -8  -3   23.31    3.24
  -1   8   3   23.73    3.39
   0  -8  -3  125.16    8.17
   0   8   3  117.47    7.75
  -1  -8  -3   23.05    3.42
   1   8   3   25.98    4.15
  -2  -8  -3   34.29    5.11
   2   8   3   31.66    4.89
  -3  -8  -3  555.00   22.01
   3   8   3  548.26   21.58
  -4  -8  -3   79.38    8.83
   4   8   3   55.96    7.27
   1  -9  -3  232.28   10.46
  -1   9   3  231.66   11.19
   0  -9  -3  225.87   10.87
   0   9   3  237.55   12.18
  -1  -9  -3  258.27   13.24
   1   9   3  267.99   13.61
   8   1  -4   -0.35    0.33
   7   1  -4    0.80    0.36
   8   2  -4  130.72    4.14
   7   2  -4    1.62    0.53
   5  -2  -4    5.63    0.64
   4  -2  -4   10.19    0.98
   3  -2  -4   14.53    1.52
   2  -2  -4  324.12    8.96
   8   3  -4    1.89    0.69
   5  -3  -4  445.77    6.55
   4  -3  -4    9.93    1.10
  -3   3   4  283.82    7.95
   3  -3  -4  287.90    6.90
   2  -3  -4    0.18    0.61
  -2   3   4   -0.31    0.77
  -1   3   4  578.35   14.76
   1  -3  -4  586.87   14.02
   0   3   4   23.18    3.83
   0  -3  -4   20.58    3.02
   1   3   4  706.31   22.02
  -1  -3  -4  695.17   20.69
   2   3   4    9.84    6.44
  -2  -3  -4   -0.17    1.28
  -7   4   4    0.21    0.22
  -6   4   4   12.17    1.05
   5  -4  -4   -1.88    0.74
  -5   4   4    0.23    0.55
  -4   4   4  152.72    4.66
   4  -4  -4  163.50    4.97
  -3   4   4  197.84    6.15
   3  -4  -4  209.22    6.50
  -2   4   4  484.05   10.40
   2  -4  -4  479.04   10.43
   1  -4  -4   -0.34    0.90
  -1   4   4    0.92    1.11
   0   4   4  135.12    7.82
   0  -4  -4  128.99    7.64
  -1  -4  -4    0.81    1.61
   1   4   4    0.98    2.23
   2   4   4  753.92   24.18
  -2  -4  -4  784.54   24.99
   3   4   4  322.24   16.92
  -3  -4  -4  342.56   18.43
   4   4   4  268.14   18.68
  -4  -4  -4  253.00   17.42
   5   4   4    6.65    5.56
  -5  -4  -4   -1.04    1.91
   6   4   4   35.09    7.79
  -6  -4  -4   29.87    6.47
  -7  -4  -4    1.36    1.98
  -6   5   4    2.21    0.63
  -5   5   4   54.49    2.88
   5  -5  -4   63.82    3.18
  -4   5   4    0.13    0.69
   4  -5  -4   -0.11    0.85
  -3   5   4    0.48    0.57
   3  -5  -4    1.16    0.76
  -2   5   4   16.24    2.29
   2  -5  -4   17.25    2.27
  -1   5   4   67.46    5.08
   1  -5  -4   54.45    4.36
   0  -5  -4   20.48    2.47
   0   5   4   18.03    2.22
   1   5   4   62.75    5.90
  -1  -5  -4   61.39    5.92
  -2  -5  -4   19.91    4.07
   2   5   4   18.85    3.67
   3   5   4   -4.37    7.40
  -3  -5  -4   -0.39    3.27
  -4  -5  -4   -1.14    3.32
   4   5   4   -2.73    2.73
   5   5   4   85.18   10.08
  -5  -5  -4  100.39   11.07
  -6  -5  -4    6.92    2.81
   6   5   4    8.14    3.79
   5  -6  -4   -0.54    0.70
  -5   6   4   -0.32    0.61
  -4   6   4    0.91    0.53
   4  -6  -4    4.45    1.13
   3  -6  -4   42.47    3.30
  -3   6   4   45.72    3.44
  -2   6   4   -1.66    1.28
   2  -6  -4   -1.05    1.02
   1  -6  -4    1.73    1.70
  -1   6   4    3.15    2.84
   0   6   4  126.42    7.85
   0  -6  -4  131.01    7.83
  -1  -6  -4    0.48    1.53
   1   6   4    1.20    1.37
  -2  -6  -4    0.03    1.35
   2   6   4    0.14    1.67
   3   6   4   64.80    7.37
  -3  -6  -4   64.38    7.66
  -4  -6  -4    0.65    2.39
   4   6   4   -3.58    3.27
  -5  -6  -4   -0.44    2.10
   5   6   4   -0.89    2.33
   6   6   4   85.53    9.42
  -6  -6  -4  111.65   11.23
   4  -7  -4    4.06    1.09
  -4   7   4    4.81    1.36
   3  -7  -4  444.08   11.59
  -3   7   4  449.48   11.80
   2  -7  -4   14.08    2.24
  -2   7   4   16.09    2.36
  -1   7   4    3.96    1.59
   1  -7  -4    4.17    1.49
   0   7   4    0.70    1.12
   0  -7  -4    2.05    1.40
   1   7   4    3.72    2.04
  -1  -7  -4    4.89    2.06
   2   7   4   17.85    4.06
  -2  -7  -4   17.06    4.17
   3   7   4  689.93   25.64
  -3  -7  -4  706.04   26.52
  -4  -7  -4    8.84    5.69
   4   7   4    7.23    2.70
   2  -8  -4    3.13    1.83
   1  -8  -4    1.80    1.02
  -1   8   4   11.77    2.50
   0  -8  -4  608.54   18.27
   0   8   4  620.07   18.60
   1   8   4   96.19    9.15
  -1  -8  -4   -1.15    2.25
   2   8   4   -1.78    2.48
  -2  -8  -4   -0.69    1.28
   6  -2  -5   49.83    2.13
   5  -2  -5   12.13    1.17
   4  -2  -5  171.15    5.29
   6  -3  -5    2.50    0.60
   5  -3  -5   13.34    1.26
   4  -3  -5   11.59    1.84
   3  -3  -5  275.97    7.37
   2  -3  -5   21.73    2.47
   1  -3  -5   40.50    4.08
   6  -4  -5   15.62    1.42
   5  -4  -5    1.11    0.46
  -4   4   5   60.88    3.85
   4  -4  -5   55.69    3.04
  -3   4   5   62.61    5.36
   3  -4  -5   17.11    2.61
  -2   4   5   23.88    2.72
   2  -4  -5   27.08    2.62
   1  -4  -5    2.28    1.26
  -1   4   5    0.50    0.85
   0   4   5  106.18    7.59
   0  -4  -5  111.47    7.42
   1   4   5    2.89    1.92
  -1  -4  -5    2.47    2.00
   2   4   5   37.61    5.87
  -2  -4  -5   41.35    6.29
  -3  -4  -5    0.28    1.54
  -5   5   5   10.71    1.26
   5  -5  -5   13.68    1.47
  -4   5   5   11.03    1.55
   4  -5  -5   12.48    1.52
  -3   5   5  430.03   10.09
   3  -5  -5  433.37   10.30
   2  -5  -5   11.41    2.10
  -2   5   5    7.76    1.65
  -1   5   5   67.27    4.96
   1  -5  -5   75.96    4.86
   0   5   5   37.25    5.24
   0  -5  -5   16.38    3.04
   1   5   5   76.97    7.14
  -1  -5  -5   76.97    7.25
  -2  -5  -5    8.87    3.02
   2   5   5    9.45    2.84
   3   5   5  647.48   25.90
  -3  -5  -5  663.42   25.56
  -4  -5  -5   19.57    4.71
   4   5   5   18.92    5.07
  -5  -5  -5   24.57    5.98
   5   5   5   21.36    5.53
   4  -6  -5   35.58    2.86
  -4   6   5   30.55    2.53
  -3   6   5   31.41    2.81
   3  -6  -5   33.10    2.79
  -2   6   5   13.71    2.04
   2  -6  -5   11.20    2.10
  -1   6   5   17.69    2.51
   1  -6  -5   16.55    2.49
   0   6   5  290.20   11.34
   0  -6  -5  287.57   10.96
  -1  -6  -5   18.88    3.50
   1   6   5   13.55    2.66
  -2  -6  -5   15.11    3.30
   2   6   5   17.02    3.76
   3   6   5   44.09    6.44
  -3  -6  -5   53.51    7.22
   4   6   5   52.53    9.51
  -4  -6  -5   54.51    8.05
  -2   7   5   26.36    3.18
   2  -7  -5   15.90    2.07
   1  -7  -5   -0.23    1.11
  -1   7   5    0.17    1.07
   0   7   5  275.73   12.10
   0  -7  -5  288.04   12.45
  -1  -7  -5    1.60    1.56
   1   7   5    3.07    2.08
   2   7   5   27.32    4.85
  -2  -7  -5   29.24    4.85
   6  -2  -6   92.59    3.38
   5  -3  -6    4.91    1.02
   4  -3  -6   31.29    2.60
   3  -3  -6  408.80    9.66
   4  -4  -6    7.92    1.28
   3  -4  -6    5.62    1.21
   2  -4  -6    0.70    3.28
   1  -4  -6   26.94    3.51
   0  -4  -6 1585.10   27.34
  -3   5   6  229.11    8.17
   3  -5  -6  242.10    7.70
   2  -5  -6    5.36    1.40
  -2   5   6    4.91    1.37
  -1   5   6   36.22    3.96
   1  -5  -6   33.97    3.47
   0  -5  -6    6.06    1.70
   0   5   6    6.66    2.16
   1   5   6   36.61    5.29
  -1  -5  -6   38.55    5.17
  -2  -5  -6   10.74    3.42
   2   5   6    4.21    2.10
  -3  -5  -6  391.30   21.70
  -1   6   6   39.17    8.32
   1  -6  -6   24.97   11.10
   0   6   6 1579.92   26.00
   0  -6  -6 1497.67   26.37
  -1  -6  -6    0.52    1.15
   1   6   6    0.92    1.49
   0   0   0    0.00    0.00

TITL lalalala in P2(1)/n
REM P2(1)/n (#14 in standard setting)
CELL 0.29056   6.249060   7.869723   7.998927  90.0000  89.7509  90.0000
ZERR    3.00   0.002796   0.001405   0.001702   0.0000   0.0308   0.0000
LATT  1
SYMM -x+1/2, y+1/2,-z+1/2
SFAC B O Si Ca
UNIT 3.00 12.00 3.00 3.00
TREF
HKLF 4
END
_computing_structure_solution     'SHELXT 2014/5 (Sheldrick, 2014)'
;
_shelx_hkl_checksum              23081
loop_
_space_group_symop_operation_xyz
'x, y, z'
'-x, y+1/2, -z+1/2'
'-x, -y, -z'
'x, -y-1/2, z-1/2'
loop_
_atom_site_label
_atom_site_type_symbol
_atom_site_fract_x
_atom_site_fract_y
_atom_site_fract_z
_atom_site_U_iso_or_equiv
_atom_site_adp_type
_atom_site_occupancy
_atom_site_site_symmetry_order
_atom_site_calc_flag
Ca1 Ca 0.7504(3) 0.1112(3) 0.7465(4) 0.0245(11) Uani 1 1 d
Si1 Si 0.0746(4) 0.2356(4) 0.0072(6) 0.0231(12) Uani 1 1 d
Si2 Si 0.4261(4) 0.2350(4) 0.0072(6) 0.0232(12) Uani 1 1 d
O1 O 0.5962(11) 0.1336(10) 0.0670(16) 0.0249(19) Uiso 1 1 d
O2 O -0.0958(11) 0.1343(10) 0.0663(16) 0.026(2) Uiso 1 1 d
O3 O 0.7492(12) 0.0931(10) 0.3777(17) 0.029(2) Uiso 1 1 d
O4 O 0.2490(11) 0.1500(10) 0.0633(16) 0.0246(18) Uiso 1 1 d
O5 O 0.4245(11) 0.3625(11) 0.2490(17) 0.027(2) Uiso 1 1 d
O6 O 0.0746(11) 0.1369(11) -0.2515(17) 0.0258(19) Uiso 1 1 d
O7 O 0.4417(10) 0.4091(10) -0.1258(16) 0.024(2) Uiso 1 1 d
O8 O 0.0587(10) 0.4087(10) -0.1263(16) 0.025(2) Uiso 1 1 d
B1 B 0.5951(16) 0.0457(17) 0.269(2) 0.026(3) Uiso 1 1 d
B2 B -0.0939(16) 0.0468(18) 0.272(3) 0.029(3) Uiso 1 1 d
loop_
_atom_site_aniso_label
_atom_site_aniso_U_11
_atom_site_aniso_U_22
_atom_site_aniso_U_33
_atom_site_aniso_U_23
_atom_site_aniso_U_13
_atom_site_aniso_U_12
Ca1 0.0351(16) 0.0111(15) 0.027(2) -0.0009(7) -0.0059(13) -0.0001(7)
Si1 0.036(2) 0.0104(18) 0.023(3) -0.0004(10) -0.0061(16) -0.0023(10)
Si2 0.036(2) 0.0072(17) 0.027(3) -0.0005(10) -0.0065(16) -0.0010(10)
loop_
_atom_type_symbol
_atom_type_description
_atom_type_scat_dispersion_real
_atom_type_scat_dispersion_imag
_atom_type_scat_source
B B -0.0005 0.0001 'International Tables Vol C Tables 4.2.6.8 and 6.1.1.4'
O O -0.0010 0.0008 'International Tables Vol C Tables 4.2.6.8 and 6.1.1.4'
Si Si 0.0083 0.0108 'International Tables Vol C Tables 4.2.6.8 and 6.1.1.4'
Ca Ca 0.0425 0.0513 'International Tables Vol C Tables 4.2.6.8 and 6.1.1.4'
loop_
_geom_angle_atom_site_label_1
_geom_angle_atom_site_label_2
_geom_angle_atom_site_label_3
_geom_angle
_geom_angle_site_symmetry_1
_geom_angle_site_symmetry_3
O3 Ca1 O8 69.0(3) . 2_645
O3 Ca1 O7 68.3(3) . 2_645
O8 Ca1 O7 82.0(3) 2_645 2_645
O3 Ca1 O1 148.1(3) . 1_556
O8 Ca1 O1 131.7(3) 2_645 1_556
O7 Ca1 O1 89.0(3) 2_645 1_556
O3 Ca1 O2 148.8(3) . 1_656
O8 Ca1 O2 89.0(3) 2_645 1_656
O7 Ca1 O2 132.2(3) 2_645 1_656
O1 Ca1 O2 63.0(3) 1_556 1_656
O3 Ca1 O4 116.5(3) . 3_656
O8 Ca1 O4 64.3(3) 2_645 3_656
O7 Ca1 O4 64.9(3) 2_645 3_656
O1 Ca1 O4 69.0(3) 1_556 3_656
O2 Ca1 O4 68.9(3) 1_656 3_656
O3 Ca1 O3 112.9(3) . 4_566
O8 Ca1 O3 138.9(3) 2_645 4_566
O7 Ca1 O3 138.3(3) 2_645 4_566
O1 Ca1 O3 69.2(3) 1_556 4_566
O2 Ca1 O3 69.3(3) 1_656 4_566
O4 Ca1 O3 130.5(4) 3_656 4_566
O3 Ca1 O6 91.0(3) . 1_656
O8 Ca1 O6 53.3(3) 2_645 1_656
O7 Ca1 O6 135.3(3) 2_645 1_656
O1 Ca1 O6 120.6(3) 1_556 1_656
O2 Ca1 O6 57.7(3) 1_656 1_656
O4 Ca1 O6 93.5(3) 3_656 1_656
O3 Ca1 O6 85.8(3) 4_566 1_656
O3 Ca1 O2 67.7(3) . 4_666
O8 Ca1 O2 94.5(3) 2_645 4_666
O7 Ca1 O2 133.9(4) 2_645 4_666
O1 Ca1 O2 123.7(3) 1_556 4_666
O2 Ca1 O2 93.4(3) 1_656 4_666
O4 Ca1 O2 151.7(3) 3_656 4_666
O3 Ca1 O2 54.5(3) 4_566 4_666
O6 Ca1 O2 58.2(3) 1_656 4_666
O3 Ca1 O1 67.4(3) . 4_566
O8 Ca1 O1 134.2(3) 2_645 4_566
O7 Ca1 O1 94.2(3) 2_645 4_566
O1 Ca1 O1 93.5(2) 1_556 4_566
O2 Ca1 O1 123.6(3) 1_656 4_566
O4 Ca1 O1 151.9(3) 3_656 4_566
O3 Ca1 O1 54.3(3) 4_566 4_566
O6 Ca1 O1 114.5(3) 1_656 4_566
O2 Ca1 O1 56.4(2) 4_666 4_566
O3 Ca1 O5 90.1(3) . 4_566
O8 Ca1 O5 135.1(3) 2_645 4_566
O7 Ca1 O5 53.1(3) 2_645 4_566
O1 Ca1 O5 58.0(3) 1_556 4_566
O2 Ca1 O5 120.8(3) 1_656 4_566
O4 Ca1 O5 94.0(3) 3_656 4_566
O3 Ca1 O5 85.4(3) 4_566 4_566
O6 Ca1 O5 171.0(3) 1_656 4_566
O2 Ca1 O5 114.2(3) 4_666 4_566
O1 Ca1 O5 57.9(3) 4_566 4_566
O3 Ca1 B2 96.5(4) . 4_666
O8 Ca1 B2 111.3(3) 2_645 4_666
O7 Ca1 B2 155.4(4) 2_645 4_666
O1 Ca1 B2 96.0(3) 1_556 4_666
O2 Ca1 B2 70.4(4) 1_656 4_666
O4 Ca1 B2 139.1(4) 3_656 4_666
O3 Ca1 B2 29.4(3) 4_566 4_666
O6 Ca1 B2 60.7(3) 1_656 4_666
O2 Ca1 B2 29.4(4) 4_666 4_666
O1 Ca1 B2 61.6(4) 4_566 4_666
O5 Ca1 B2 110.3(3) 4_566 4_666
O4 Si1 O8 123.1(5) . .
O4 Si1 O2 118.6(5) . .
O8 Si1 O2 117.9(5) . .
O4 Si1 O6 91.1(5) . .
O8 Si1 O6 84.2(5) . .
O2 Si1 O6 89.4(5) . .
O4 Si1 O6 92.8(5) . 4_566
O8 Si1 O6 87.9(5) . 4_566
O2 Si1 O6 94.9(5) . 4_566
O6 Si1 O6 172.0(4) . 4_566
O4 Si1 Si2 28.4(3) . .
O8 Si1 Si2 94.8(3) . .
O2 Si1 Si2 147.1(4) . .
O6 Si1 Si2 90.2(3) . .
O6 Si1 Si2 89.8(3) 4_566 .
O4 Si1 Ca1 133.8(4) . 1_454
O8 Si1 Ca1 85.9(4) . 1_454
O2 Si1 Ca1 44.5(4) . 1_454
O6 Si1 Ca1 53.8(3) . 1_454
O6 Si1 Ca1 126.3(3) 4_566 1_454
Si2 Si1 Ca1 143.79(15) . 1_454
O4 Si1 Ca1 139.6(4) . 4_465
O8 Si1 Ca1 81.8(3) . 4_465
O2 Si1 Ca1 53.4(3) . 4_465
O6 Si1 Ca1 125.3(3) . 4_465
O6 Si1 Ca1 53.8(3) 4_566 4_465
Si2 Si1 Ca1 143.46(15) . 4_465
Ca1 Si1 Ca1 72.56(10) 1_454 4_465
O4 Si1 Ca1 37.3(3) . 3_656
O8 Si1 Ca1 160.4(3) . 3_656
O2 Si1 Ca1 81.4(3) . 3_656
O6 Si1 Ca1 93.5(3) . 3_656
O6 Si1 Ca1 93.8(3) 4_566 3_656
Si2 Si1 Ca1 65.74(11) . 3_656
Ca1 Si1 Ca1 108.40(10) 1_454 3_656
Ca1 Si1 Ca1 114.71(11) 4_465 3_656
O4 Si1 Ca1 96.0(3) . 2_655
O8 Si1 Ca1 27.4(3) . 2_655
O2 Si1 Ca1 145.3(4) . 2_655
O6 Si1 Ca1 87.7(3) . 2_655
O6 Si1 Ca1 84.9(3) 4_566 2_655
Si2 Si1 Ca1 67.53(10) . 2_655
Ca1 Si1 Ca1 109.65(12) 1_454 2_655
Ca1 Si1 Ca1 101.89(9) 4_465 2_655
Ca1 Si1 Ca1 133.26(14) 3_656 2_655
O4 Si2 O7 122.4(5) . .
O4 Si2 O1 119.0(5) . .
O7 Si2 O1 118.4(4) . .
O4 Si2 O5 90.5(5) . 4_565
O7 Si2 O5 84.3(5) . 4_565
O1 Si2 O5 90.3(5) . 4_565
O4 Si2 O5 92.6(5) . .
O7 Si2 O5 87.7(5) . .
O1 Si2 O5 94.8(5) . .
O5 Si2 O5 171.8(4) 4_565 .
O4 Si2 Si1 28.2(3) . .
O7 Si2 Si1 94.3(3) . .
O1 Si2 Si1 147.2(3) . .
O5 Si2 Si1 89.4(3) 4_565 .
O5 Si2 Si1 89.8(3) . .
O4 Si2 Ca1 134.0(3) . 1_554
O7 Si2 Ca1 86.3(3) . 1_554
O1 Si2 Ca1 44.8(3) . 1_554
O5 Si2 Ca1 54.5(3) 4_565 1_554
O5 Si2 Ca1 126.4(3) . 1_554
Si1 Si2 Ca1 143.77(16) . 1_554
O4 Si2 Ca1 139.9(4) . 4_565
O7 Si2 Ca1 81.9(4) . 4_565
O1 Si2 Ca1 53.3(3) . 4_565
O5 Si2 Ca1 125.9(3) 4_565 4_565
O5 Si2 Ca1 53.9(3) . 4_565
Si1 Si2 Ca1 143.46(15) . 4_565
Ca1 Si2 Ca1 72.55(10) 1_554 4_565
O4 Si2 Ca1 37.7(3) . 3_656
O7 Si2 Ca1 160.1(3) . 3_656
O1 Si2 Ca1 81.4(3) . 3_656
O5 Si2 Ca1 93.4(3) 4_565 3_656
O5 Si2 Ca1 93.7(3) . 3_656
Si1 Si2 Ca1 65.91(10) . 3_656
Ca1 Si2 Ca1 108.47(10) 1_554 3_656
Ca1 Si2 Ca1 114.78(12) 4_565 3_656
B1 O1 Si2 115.9(7) . .
B1 O1 Ca1 135.3(7) . 1_554
Si2 O1 Ca1 106.1(5) . 1_554
B1 O1 Ca1 89.7(7) . 4_565
Si2 O1 Ca1 96.8(4) . 4_565
Ca1 O1 Ca1 100.2(3) 1_554 4_565
B2 O2 Si1 114.9(9) . .
B2 O2 Ca1 135.9(8) . 1_454
Si1 O2 Ca1 106.6(5) . 1_454
B2 O2 Ca1 89.4(7) . 4_465
Si1 O2 Ca1 96.6(4) . 4_465
Ca1 O2 Ca1 100.3(3) 1_454 4_465
B1 O3 B2 116.8(11) . 1_655
B1 O3 Ca1 119.2(8) . .
B2 O3 Ca1 117.4(9) 1_655 .
B1 O3 Ca1 95.1(7) . 4_565
B2 O3 Ca1 94.7(7) 1_655 4_565
Ca1 O3 Ca1 105.9(3) . 4_565
Si1 O4 Si2 123.4(6) . .
Si1 O4 Ca1 118.7(4) . 3_656
Si2 O4 Ca1 117.8(5) . 3_656
B1 O5 Si2 119.7(9) 2_655 4_566
B1 O5 Si2 119.0(9) 2_655 .
Si2 O5 Si2 121.0(5) 4_566 .
B1 O5 Ca1 91.7(6) 2_655 4_565
Si2 O5 Ca1 91.6(4) 4_566 4_565
Si2 O5 Ca1 92.0(3) . 4_565
B2 O6 Si1 120.4(9) 3 .
B2 O6 Si1 118.5(9) 3 4_565
Si1 O6 Si1 120.7(5) . 4_565
B2 O6 Ca1 91.6(7) 3 1_454
Si1 O6 Ca1 92.4(3) . 1_454
Si1 O6 Ca1 92.0(4) 4_565 1_454
B1 O7 Si2 120.9(8) 4_565 .
B1 O7 Ca1 104.2(7) 4_565 2_655
Si2 O7 Ca1 134.2(4) . 2_655
B2 O8 Si1 120.8(8) 4_565 .
B2 O8 Ca1 104.4(7) 4_565 2_655
Si1 O8 Ca1 134.1(5) . 2_655
O7 B1 O1 106.6(11) 4_566 .
O7 B1 O5 100.9(9) 4_566 2_645
O1 B1 O5 114.2(12) . 2_645
O7 B1 O3 116.4(12) 4_566 .
O1 B1 O3 106.5(10) . .
O5 B1 O3 112.4(11) 2_645 .
O7 B1 Ca1 98.8(7) 4_566 4_565
O1 B1 Ca1 61.4(6) . 4_565
O5 B1 Ca1 160.2(8) 2_645 4_565
O3 B1 Ca1 55.7(6) . 4_565
O7 B1 Ca1 48.5(6) 4_566 3_656
O1 B1 Ca1 99.8(8) . 3_656
O5 B1 Ca1 59.7(6) 2_645 3_656
O3 B1 Ca1 153.1(9) . 3_656
Ca1 B1 Ca1 138.5(5) 4_565 3_656
O7 B1 Ca1 82.5(8) 4_566 .
O1 B1 Ca1 136.2(8) . .
O5 B1 Ca1 105.5(9) 2_645 .
O3 B1 Ca1 37.9(6) . .
Ca1 B1 Ca1 75.0(3) 4_565 .
Ca1 B1 Ca1 116.2(4) 3_656 .
O8 B2 O2 106.9(10) 4_566 .
O8 B2 O6 101.1(11) 4_566 3
O2 B2 O6 113.2(12) . 3
O8 B2 O3 118.1(12) 4_566 1_455
O2 B2 O3 105.6(11) . 1_455
O6 B2 O3 112.1(10) 3 1_455
O8 B2 Ca1 99.3(8) 4_566 4_465
O2 B2 Ca1 61.2(6) . 4_465
O6 B2 Ca1 159.6(10) 3 4_465
O3 B2 Ca1 55.9(6) 1_455 4_465
O8 B2 Ca1 48.4(5) 4_566 3_656
O2 B2 Ca1 100.1(7) . 3_656
O6 B2 Ca1 59.5(6) 3 3_656
O3 B2 Ca1 154.0(10) 1_455 3_656
Ca1 B2 Ca1 138.9(5) 4_465 3_656
O8 B2 Ca1 83.0(8) 4_566 1_455
O2 B2 Ca1 136.4(8) . 1_455
O6 B2 Ca1 105.8(8) 3 1_455
O3 B2 Ca1 39.1(6) 1_455 1_455
Ca1 B2 Ca1 75.4(3) 4_465 1_455
Ca1 B2 Ca1 116.3(5) 3_656 1_455
loop_
_geom_bond_atom_site_label_1
_geom_bond_atom_site_label_2
_geom_bond_distance
_geom_bond_site_symmetry_2
Ca1 O3 2.309(11) .
Ca1 O8 2.329(8) 2_645
Ca1 O7 2.339(9) 2_645
Ca1 O1 2.354(9) 1_556
Ca1 O2 2.358(11) 1_656
Ca1 O4 2.375(9) 3_656
Ca1 O3 2.468(9) 4_566
Ca1 O6 2.601(9) 1_656
Ca1 O2 2.604(8) 4_666
Ca1 O1 2.613(9) 4_566
Ca1 O5 2.615(9) 4_566
Ca1 B2 2.971(14) 4_666
Si1 O4 1.590(10) .
Si1 O8 1.603(9) .
Si1 O2 1.621(8) .
Si1 O6 1.794(11) .
Si1 O6 1.811(11) 4_566
Si1 Si2 2.811(5) .
Si1 Ca1 3.221(5) 1_454
Si1 Ca1 3.222(4) 4_465
Si1 Ca1 3.435(4) 3_656
Si1 Ca1 3.631(4) 2_655
Si2 O4 1.603(9) .
Si2 O7 1.607(9) .
Si2 O1 1.623(9) .
Si2 O5 1.787(11) 4_565
Si2 O5 1.813(11) .
Si2 Ca1 3.209(4) 1_554
Si2 Ca1 3.235(4) 4_565
Si2 Ca1 3.430(4) 3_656
O1 B1 1.438(17) .
O1 Ca1 2.354(9) 1_554
O1 Ca1 2.613(9) 4_565
O2 B2 1.457(18) .
O2 Ca1 2.358(11) 1_454
O2 Ca1 2.604(8) 4_465
O3 B1 1.459(18) .
O3 B2 1.463(15) 1_655
O3 Ca1 2.468(9) 4_565
O4 Ca1 2.375(9) 3_656
O5 B1 1.454(15) 2_655
O5 Si2 1.787(11) 4_566
O5 Ca1 2.615(9) 4_565
O6 B2 1.459(16) 3
O6 Si1 1.811(11) 4_565
O6 Ca1 2.601(9) 1_454
O7 B1 1.435(14) 4_565
O7 Ca1 2.339(9) 2_655
O8 B2 1.423(18) 4_565
O8 Ca1 2.329(8) 2_655
B1 O7 1.435(14) 4_566
B1 O5 1.454(15) 2_645
B1 Ca1 2.976(14) 4_565
B1 Ca1 3.029(13) 3_656
B2 O8 1.423(18) 4_566
B2 O6 1.459(16) 3
B2 O3 1.463(15) 1_455
B2 Ca1 2.971(14) 4_465
B2 Ca1 3.017(14) 3_656
B2 Ca1 3.253(15) 1_455
