#------------------------------------------------------------------------------
#$Date: 2017-08-11 08:38:00 +0300 (Fri, 11 Aug 2017) $
#$Revision: 199718 $
#$URL: file:///home/coder/svn-repositories/cod/cif/1/54/67/1546775.cif $
#------------------------------------------------------------------------------
#
# This file is available in the Crystallography Open Database (COD),
# http://www.crystallography.net/. The original data for this entry
# were provided by IUCr Journals, http://journals.iucr.org/.
#
# The file may be used within the scientific community so long as
# proper attribution is given to the journal article from which the
# data were obtained.
#
data_1546775
loop_
_publ_author_name
'Pakhomova, Anna'
'Bykova, Elena'
'Bykov, Maxim'
'Glazyrin, Konstantin'
'Gasharova, Biliana'
'Liermann, Hanns-Peter'
'Mezouar, Mohamed'
'Gorelova, Liudmila'
'Krivovichev, Sergey'
'Dubrovinsky, Leonid'
_publ_section_title
;
 A closer look into close packing: pentacoordinated silicon in a
 high-pressure polymorph of danburite
;
_journal_issue                   5
_journal_name_full               IUCrJ
_journal_page_first
;
;
_journal_paper_doi               10.1107/S2052252517010612
_journal_volume                  4
_journal_year                    2017
_chemical_formula_moiety         'B2 Ca O8 Si2'
_chemical_formula_sum            'B2 Ca O8 Si2'
_chemical_formula_weight         245.88
_chemical_name_common            danburite
_chemical_name_systematic        danburite
_space_group_crystal_system      orthorhombic
_space_group_IT_number           62
_space_group_name_Hall           '-P 2c 2n'
_space_group_name_H-M_alt        'P n a m'
_symmetry_space_group_name_Hall  '-P 2c 2n'
_symmetry_space_group_name_H-M   'P n a m'
_audit_creation_method           SHELXL-2014/7
_cell_angle_alpha                90
_cell_angle_beta                 90
_cell_angle_gamma                90
_cell_formula_units_Z            4
_cell_length_a                   6.8576(3)
_cell_length_b                   8.1526(3)
_cell_length_c                   7.7457(2)
_cell_measurement_pressure       22600000
_cell_measurement_reflns_used    1462
_cell_measurement_temperature    293(2)
_cell_measurement_theta_max      16.8350
_cell_measurement_theta_min      1.9150
_cell_volume                     433.04(3)
_computing_cell_refinement
;
CrysAlisPro, Agilent Technologies,
Version 1.171.36.28 (release 01-02-2013 CrysAlis171 .NET)
(compiled Feb  1 2013,16:14:44)
;
_computing_data_collection
;
CrysAlisPro, Agilent Technologies,
Version 1.171.36.28 (release 01-02-2013 CrysAlis171 .NET)
(compiled Feb  1 2013,16:14:44)
;
_computing_data_reduction
;
CrysAlisPro, Agilent Technologies,
Version 1.171.36.28 (release 01-02-2013 CrysAlis171 .NET)
(compiled Feb  1 2013,16:14:44)
;
_computing_structure_refinement  'SHELXL-2014/7 (Sheldrick, 2014)'
_computing_structure_solution    'SHELXL-2014/7 (Sheldrick, 2014)'
_diffrn_ambient_pressure         22600000
_diffrn_ambient_temperature      293(2)
_diffrn_measured_fraction_theta_full 0.798
_diffrn_measured_fraction_theta_max 0.513
_diffrn_measurement_device_type
'esperanto-CrysAlisPro-abstract goniometer imported esperanto images'
_diffrn_measurement_method       '\w scans'
_diffrn_radiation_type           synchrotron
_diffrn_radiation_wavelength     0.29024
_diffrn_reflns_av_R_equivalents  0.0191
_diffrn_reflns_av_unetI/netI     0.0229
_diffrn_reflns_Laue_measured_fraction_full 0.798
_diffrn_reflns_Laue_measured_fraction_max 0.513
_diffrn_reflns_limit_h_max       11
_diffrn_reflns_limit_h_min       -10
_diffrn_reflns_limit_k_max       12
_diffrn_reflns_limit_k_min       -13
_diffrn_reflns_limit_l_max       15
_diffrn_reflns_limit_l_min       -13
_diffrn_reflns_number            2397
_diffrn_reflns_point_group_measured_fraction_full 0.798
_diffrn_reflns_point_group_measured_fraction_max 0.513
_diffrn_reflns_theta_full        10.029
_diffrn_reflns_theta_max         16.875
_diffrn_reflns_theta_min         1.914
_diffrn_source                   synchrotron
_diffrn_source_type              'PETRA III, Beamline P02.2'
_exptl_absorpt_coefficient_mu    0.200
_exptl_crystal_colour            colorless
_exptl_crystal_density_diffrn    3.771
_exptl_crystal_density_method    'not measured'
_exptl_crystal_description       'plate crystal'
_exptl_crystal_F_000             488
_exptl_crystal_size_max          0.020
_exptl_crystal_size_mid          0.015
_exptl_crystal_size_min          0.010
_refine_diff_density_max         0.642
_refine_diff_density_min         -0.753
_refine_diff_density_rms         0.151
_refine_ls_extinction_coef       0.31(3)
_refine_ls_extinction_expression Fc^*^=kFc[1+0.001xFc^2^\l^3^/sin(2\q)]^-1/4^
_refine_ls_extinction_method     'SHELXL-2014/7 (Sheldrick 2014'
_refine_ls_goodness_of_fit_ref   1.190
_refine_ls_hydrogen_treatment    undef
_refine_ls_matrix_type           full
_refine_ls_number_parameters     65
_refine_ls_number_reflns         977
_refine_ls_number_restraints     0
_refine_ls_restrained_S_all      1.190
_refine_ls_R_factor_all          0.0293
_refine_ls_R_factor_gt           0.0262
_refine_ls_shift/su_max          0.000
_refine_ls_shift/su_mean         0.000
_refine_ls_structure_factor_coef Fsqd
_refine_ls_weighting_details
'w=1/[\s^2^(Fo^2^)+(0.0392P)^2^+0.1215P] where P=(Fo^2^+2Fc^2^)/3'
_refine_ls_weighting_scheme      calc
_refine_ls_wR_factor_gt          0.0698
_refine_ls_wR_factor_ref         0.0723
_reflns_Friedel_coverage         0.000
_reflns_number_gt                926
_reflns_number_total             977
_reflns_threshold_expression     'I > 2\s(I)'
_cod_data_source_file            lt5006.cif
_cod_data_source_block           danburite_22.6GPa
_cod_database_code               1546775
_shelx_shelxl_version_number     2014/7
_shelx_space_group_comment
;
The symmetry employed for this shelxl refinement is uniquely defined
by the following loop, which should always be used as a source of
symmetry information in preference to the above space-group names.
They are only intended as comments.
;
_shelx_res_file
;

    shelx.res created by SHELXL-2014/7


TITL dom1
CELL 0.29024 6.8576 8.1526 7.7457 90 90 90
ZERR 4.0000 0.0003 0.0003 0.0002  0.000 0.000 0.000

LATT 1
SYMM -x,-y,z+1/2
SYMM -x+1/2,y+1/2,-z
SYMM x+1/2,-y+1/2,-z+1/2
SFAC  B O Si Ca
DISP    O    -0.00099    0.00082         6.65
DISP    B    -0.00051    0.00009         3.17
DISP    Si    0.00824    0.01075        28.16
DISP    Ca    0.04241    0.05118       101.12
UNIT 8 32 8 4
L.S. 30
acta
WGHT    0.039200    0.121500
EXTI    0.312552
FVAR       2.28631
CA1   4    0.294190    0.101895    0.250000    10.50000    0.01083    0.00418 =
         0.00657    0.00000    0.00000    0.00043
SI1   3    0.036141    0.206725   -0.072594    11.00000    0.00712    0.00241 =
         0.00514    0.00010   -0.00012   -0.00039
O1    2    0.242154    0.110695   -0.063768    11.00000    0.00888    0.00220 =
         0.00898   -0.00031   -0.00046    0.00072
O2    2    0.113192    0.390132   -0.058854    11.00000    0.00809    0.00218 =
         0.00671   -0.00006   -0.00055   -0.00042
O3    2    0.418056    0.353960    0.091708    11.00000    0.00759    0.00507 =
         0.00625   -0.00048    0.00064    0.00151
O4    2    0.569268    0.657148    0.250000    10.50000    0.00845    0.00455 =
         0.00472    0.00000    0.00000    0.00083
O5    2    0.132738    0.395001    0.250000    10.50000    0.00801    0.00460 =
         0.00521    0.00000    0.00000   -0.00104
B1    1    0.228600    0.439018    0.409610    11.00000    0.00803    0.00334 =
         0.00544   -0.00003   -0.00008   -0.00004

HKLF 4

REM  dom1
REM R1 =  0.0262 for     926 Fo > 4sig(Fo)  and  0.0293 for all     977 data
REM     65 parameters refined using      0 restraints

END

WGHT      0.0392      0.1215

REM Highest difference peak  0.642,  deepest hole -0.753,  1-sigma level  0.151
Q1    1   0.3765  0.0429  0.2500  10.50000  0.05    0.64
Q2    1   0.3692  0.1508  0.2500  10.50000  0.05    0.60
Q3    1   0.0398  0.3021 -0.0159  11.00000  0.05    0.51
Q4    1   0.1321  0.1479 -0.0424  11.00000  0.05    0.49
Q5    1   0.5353  0.7005  0.1951  11.00000  0.05    0.45
Q6    1  -0.0512  0.2646 -0.0690  11.00000  0.05    0.44
Q7    1   0.2276  0.1420  0.2500  10.50000  0.05    0.43
Q8    1   0.7164  0.6997  0.1859  11.00000  0.05    0.42
Q9    1   0.2156  0.0518  0.2500  10.50000  0.05    0.42
Q10   1   0.0006  0.3565 -0.0524  11.00000  0.05    0.41
Q11   1   0.3199  0.3962  0.4176  11.00000  0.05    0.41
Q12   1   0.2932  0.1573 -0.0540  11.00000  0.05    0.40
Q13   1   0.0525  0.5151 -0.0059  11.00000  0.05    0.40
Q14   1   0.0283  0.5128 -0.1665  11.00000  0.05    0.39
Q15   1   0.4566  0.1638  0.1751  11.00000  0.05    0.39
Q16   1   0.7199  0.6050  0.1659  11.00000  0.05    0.39
Q17   1   0.0594  0.5126  0.3620  11.00000  0.05    0.37
Q18   1   0.2037  0.4171  0.3579  11.00000  0.05    0.37
Q19   1   0.3449  0.2170  0.0028  11.00000  0.05    0.35
Q20   1   0.4357 -0.0030  0.2500  10.50000  0.05    0.35
;
_shelx_res_checksum              86094
_shelx_hkl_file
;
   0  -2  -1   -0.28    1.10   1
   0   2   1   -0.25    1.14   1
   0   3   131687.40  496.29   1
   0  -3  -132999.80  498.58   1
   0  -4  -1   -1.33    2.57   1
   0   4   1   -5.02    4.87   1
   0  -5  -1   73.32   12.57   1
   0   5   1   46.29   11.71   1
   0  -6  -1   -1.36    3.16   1
   0   6   1    8.62    4.18   1
   0  -1  -2   -0.05    1.07   1
   0   1   2    1.17    1.06   1
   0  -2  -2 8603.75  150.04   1
   0   2   2 8423.51  148.51   1
   0  -3  -2   -0.26    2.09   1
   0   3   2    1.16    2.32   1
   0   4   2 3568.76   93.18   1
   0  -4  -2 3502.13   91.98   1
   0  -5  -2   -2.79    3.93   1
   0   5   2    2.72    3.59   1
   0   6   2  803.50   53.01   1
   0  -6  -2  889.04   49.59   1
   0   7   2   -5.25    4.59   1
   0  -7  -2    1.53    4.73   1
   0   8   2 1148.41   78.34   1
   0  -8  -2 1218.41   68.18   1
   0   0   3   -0.97    1.01   1
   0  -1  -340299.00  589.61   1
   0   1   340129.50  589.97   1
   0  -2  -3   -0.04    1.48   1
   0   2   3    0.56    2.49   1
   0   3   3 9238.45  174.28   1
   0  -3  -3 9356.97  175.17   1
   0  -4  -3    0.87    1.71   1
   0   4   3   -1.76    2.55   1
   0   5   3 1447.75   61.96   1
   0  -5  -3 1502.97   61.68   1
   0  -6  -3   -3.03    6.27   1
   0   6   3   -2.91    4.79   1
   0   7   325770.20  462.52   1
   0  -7  -324444.40  445.60   1
   0   8   3  -10.32    8.61   1
   0  -8  -3    1.15    6.54   1
   0   9   317625.60  399.48   1
   0  -9  -317025.10  358.09   1
   0 -10  -3   -3.91    6.88   1
   0   0   4 7277.23  127.61   1
   0  -1  -4   -0.38    1.64   1
   0   1   4   -0.36    1.40   1
   0   2   4 2866.52   71.97   1
   0  -2  -4 2860.42   71.56   1
   0   3   4   -0.38    2.39   1
   0  -3  -4    0.25    3.25   1
   0   4   412117.50  228.88   1
   0  -4  -412100.10  227.33   1
   0  -5  -4   -0.98    5.45   1
   0   5   4   -5.63    4.50   1
   0  -6  -4 4066.42  118.94   1
   0   6   4 4002.11  121.45   1
   0  -7  -4    0.88    3.47   1
   0   7   4   -2.17    4.00   1
   0  -8  -4 2829.41  108.44   1
   0   8   4 2726.81  113.59   1
   0   9   4   -3.39    9.42   1
   0  -9  -4   -3.17    5.72   1
   0  10   4 4110.24  173.17   1
   0 -10  -4 4007.04  149.34   1
   0 -11  -4    5.05    7.65   1
   0  11   4   14.90   15.39   1
   0   0   5    2.28    2.26   1
   0   1   513014.90  214.38   1
   0  -1  -512157.60  213.43   1
   0  -2  -5    7.37    6.83   1
   0   2   5   -0.53    2.99   1
   0   3   5 8622.69  175.27   1
   0  -3  -5 8707.32  172.88   1
   0  -4  -5   -3.41    4.29   1
   0   4   5    1.94    4.26   1
   0   5   5  303.02   28.64   1
   0  -5  -5  321.68   28.22   1
   0  -6  -5   -2.22    3.95   1
   0   6   5    4.86    3.79   1
   0  -7  -5 1962.72   88.66   1
   0   7   5 2153.56   90.37   1
   0  -8  -5   -0.78    7.56   1
   0   8   5    1.77    7.02   1
   0   9   5  176.04   32.42   1
   0  -9  -5  238.09   32.87   1
   0  10   5    5.16    5.98   1
   0 -10  -5    6.32    9.99   1
   0 -11  -5 2154.39  112.57   1
   0  11   5 2172.99  130.27   1
   0   0   699999.90 1439.53   1
   0  -1  -6   -1.90    3.49   1
   0   1   6   -0.23    1.73   1
   0  -2  -6 3298.53   85.46   1
   0   2   6 3485.58   88.31   1
   0   3   6    0.49    3.24   1
   0  -3  -6   -1.35    3.98   1
   0   4   618019.00  323.75   1
   0  -4  -618244.10  323.46   1
   0  -5  -6   -0.31    5.11   1
   0   5   6   10.81    5.37   1
   0   6   6 3237.15  111.60   1
   0  -6  -6 3196.93  108.46   1
   0  -7  -6    0.14    5.64   1
   0   7   6   -3.46    5.54   1
   0   8   6   96.82   21.30   1
   0  -8  -6   92.58   23.32   1
   0  -9  -6   -1.84    5.53   1
   0   9   6    3.49    8.59   1
   0 -10  -6 8799.00  245.84   1
   0  10   6 8781.01  262.27   1
   0   0   7    1.19    2.28   1
   0   1   7 8219.30  161.01   1
   0   2   7   -4.27    3.96   1
   0  -2  -7    1.50    2.39   1
   0   3   719978.20  346.74   1
   0  -3  -720002.50  344.50   1
   0  -4  -7    0.28    3.65   1
   0   4   7   -4.14    4.41   1
   0   5   7 5019.41  121.83   1
   0  -5  -7   95.67   20.29   1
   0   6   7   -3.71    3.33   1
   0  -6  -7   -3.80    6.29   1
   0  -7  -7 9001.03  215.05   1
   0   7   7 8502.27  222.65   1
   0  -8  -7    8.90    7.91   1
   0   8   7   -6.20    8.03   1
   0   9   7  478.17   47.00   1
   0  -9  -7  433.70   44.55   1
   0  10   7   -3.67    5.57   1
   0 -10  -7   -7.67    7.27   1
   0   0   8 4116.42   99.91   1
   0   1   8    1.46    4.68   1
   0  -2  -8 5640.01  129.08   1
   0   2   8 5534.63  131.72   1
   0   3   8    1.96    4.63   1
   0  -3  -8    5.14    3.65   1
   0   4   8 2788.57   95.45   1
   0  -4  -8 2853.19   93.56   1
   0  -5  -8   -8.48    5.38   1
   0   5   8   -5.91    5.71   1
   0  -6  -8  145.62   21.84   1
   0   6   8  180.17   24.54   1
   0   7   8   -5.12    8.81   1
   0  -7  -8    6.42    7.09   1
   0   8   8  677.62   56.46   1
   0  -8  -8  625.76   51.42   1
   0   9   8   26.62   17.06   1
   0  -9  -8    7.81    6.54   1
   0 -10  -8 1033.15   74.24   1
   0  10   8  824.64   71.38   1
   0   0   9   -2.19    2.65   1
   0   1   9 7013.29  154.42   1
   0  -2  -9    1.33    5.05   1
   0   2   9    8.67   13.67   1
   0   3   9   18.96    8.51   1
   0  -3  -9    9.25    4.21   1
   0  -4  -9   13.93    6.67   1
   0   4   9   -0.12    5.47   1
   0   5   9  481.70   39.87   1
   0  -5  -9  478.65   38.43   1
   0   6   9   11.07    8.14   1
   0  -6  -9   -6.66    8.00   1
   0  -7  -9 5416.98  161.49   1
   0   7   9 5533.76  170.22   1
   0  -8  -9  -10.10    6.73   1
   0   8   9    2.94    6.46   1
   0  -9  -9 6265.24  193.40   1
   0   9   9 6338.99  200.27   1
   0   0  10 7932.43  169.09   1
   0   1  10   -5.35    4.88   1
   0   2  10   44.19   12.71   1
   0   3  10    5.14    3.19   1
   0  -3 -10    1.29    5.29   1
   0  -4 -10 5518.80  145.24   1
   0   4  10 5441.18  150.76   1
   0  -5 -10  -12.05    7.34   1
   0   5  10    0.68    5.95   1
   0   6  10 3076.81  115.83   1
   0  -6 -10 3089.01  112.73   1
   0   7  10   -2.62    4.87   1
   0  -7 -10    6.52    6.94   1
   0   8  10 1977.76  105.78   1
   0  -8 -10 2100.70   99.82   1
   0   9  10   -1.96    5.76   1
   0  -9 -10   -7.98   10.24   1
   0   0  11    3.60    3.30   1
   0   1  11 3610.52  106.09   1
   0   2  11    5.35    6.40   1
   0  -3 -11 3679.10  110.44   1
   0   3  11 3770.64  115.87   1
   0  -4 -11   -1.10    3.43   1
   0   4  11   -9.55    9.08   1
   0   5  11   94.70   19.39   1
   0  -5 -11   72.23   15.53   1
   0  -6 -11   -7.16    6.40   1
   0   6  11   14.68    9.73   1
   0   7  11 1504.77   84.89   1
   0  -7 -11 1520.74   82.34   1
   0   8  11    2.14    8.22   1
   0  -8 -11   -9.34    7.91   1
   0   0  1216710.00  307.46   1
   0   1  12    4.76    4.92   1
   0   2  12  353.11   31.52   1
   0   3  12   -2.01    4.09   1
   0  -4 -12 2097.24   86.46   1
   0   4  12 2115.07   89.87   1
   0   5  12    4.83    4.36   1
   0  -5 -12   -4.57    8.68   1
   0  -6 -12  391.03   38.48   1
   0   6  12  382.55   39.89   1
   0   7  12    0.94    6.71   1
   0  -7 -12    8.42    8.98   1
   0   8  12   22.26   11.27   1
   0  -8 -12   15.43    6.81   1
   0   0  13    9.80    7.36   1
   0   1  13 5995.52  153.82   1
   0   2  13   -5.08    5.70   1
   0   3  13 6043.05  163.39   1
   0   4  13   -1.04    4.57   1
   0  -4 -13    7.81    6.63   1
   0  -5 -13   54.99   13.90   1
   0   5  13   71.77   18.38   1
   0   6  13   -1.77    5.27   1
   0  -6 -13  -10.78    7.55   1
   0   7  13 4253.94  154.16   1
   0  -7 -13 4152.66  145.15   1
   0   3  14   -0.15    6.14   1
   0   4  14 2082.73   92.56   1
   0   5  14    9.87    6.67   1
   0   6  14  134.45   24.65   1
  -1  -2   0  849.02   28.91   1
   1   2   0  901.70   28.84   1
   1   3   033328.60  508.81   1
  -1  -3   033813.00  507.19   1
  -1  -4   0  398.06   24.70   1
   1   4   0  394.41   24.80   1
  -1  -5   044920.70  694.48   1
   1   5   044861.00  699.71   1
  -1  -6   0  827.06   46.20   1
   1   6   0  827.56   50.01   1
  -1  -7   0 2089.75   84.50   1
   1   7   0 2232.10   96.38   1
  -1  -8   0 9759.77  228.00   1
   1   1   1  356.45   16.38   1
  -1  -1  -1  358.16   15.82   1
   1   2   1 7212.59  130.78   1
  -1  -2  -1 7294.04  130.92   1
   1   2  -1 7193.03  123.45   1
  -1  -2   1 7392.30  122.99   1
   1   3  -1  158.84   13.63   1
  -1  -3  -1  129.85   13.20   1
   1   3   1  138.12   13.60   1
  -1  -3   1  158.11   13.33   1
  -1  -4  -1 1671.79   56.89   1
   1   4   1 1700.76   58.82   1
   1   4  -1 1748.02   62.80   1
  -1  -4   1 1812.33   57.44   1
   1   5  -1 3880.78  113.71   1
   1   5   1 3705.82  104.35   1
  -1  -5   1 3742.06   99.46   1
  -1  -5  -1 3818.45  101.70   1
  -1  -6   1 2500.09   85.12   1
  -1  -6  -1 2356.33   84.48   1
  -1  -7  -1   -0.23    8.13   1
   1   7   1   12.63    3.27   1
   1   8   1 3245.21  126.97   1
  -1  -8  -1 3157.42  113.29   1
   1   9   1 1495.21   92.95   1
  -1  -9  -1 1491.44   78.63   1
  -1 -10  -1   26.17    9.43   1
  -1   1   2 1298.50   37.67   1
  -1  -1  -2 1397.34   39.22   1
   1  -1  -2 1428.84   33.78   1
   1   1   2 1348.99   39.53   1
   1  -2  -2 3592.32   79.59   1
  -1  -2  -2 3688.61   82.27   1
  -1  -2   2 3867.06   75.63   1
   1   2   2 3637.26   82.51   1
   1   3   2 3378.62   85.31   1
  -1  -3  -2 3543.87   84.75   1
   1  -3  -2 3324.82   84.64   1
   1   4   2 5577.63  125.59   1
  -1  -4  -2 5605.35  125.95   1
  -1  -5  -2 3051.11   93.03   1
   1   5   2 3157.29   94.43   1
  -1  -6  -2 1557.39   65.57   1
   1   6   2 1517.07   68.00   1
   1   7   2 5211.45  144.07   1
  -1  -7  -2 5120.90  143.74   1
  -1  -8  -2 1137.28   63.75   1
   1   8   2 1100.92   68.18   1
   1   9   2 2472.18  117.47   1
  -1  -9  -2 2592.19  105.67   1
  -1 -10  -2   57.47   17.36   1
   1  10   2   68.78   23.66   1
   1  11   2   47.48   25.56   1
  -1 -11  -2   11.33   13.44   1
  -1   1   330061.40  438.50   1
   1  -1  -329464.60  436.95   1
   1   1   330317.90  449.91   1
  -1  -1  -328823.60  448.37   1
  -1  -2  -322053.30  357.27   1
   1  -2  -322535.70  349.19   1
  -1   2   322981.10  349.93   1
   1   2   322664.10  359.35   1
  -1  -3  -3 9924.80  185.34   1
   1   3   3 9642.50  185.85   1
  -1   3   310016.60  189.06   1
   1  -3  -310044.30  184.61   1
  -1  -4  -310817.60  207.06   1
   1   4   310837.60  207.83   1
  -1   4   310904.00  218.69   1
   1  -4  -310347.80  209.49   1
  -1  -5  -3 4205.11  113.11   1
  -1   5   3 3963.78  126.51   1
   1   5   3 4176.63  114.15   1
   1  -6  -339836.50  658.40   1
  -1  -6  -341597.90  657.14   1
   1   6   339730.10  658.14   1
  -1  -7  -3  938.81   55.46   1
   1   7   3  904.77   55.88   1
   1   8   3 5735.55  164.79   1
  -1  -8  -3 5793.42  164.49   1
  -1  -9  -3  795.86   57.63   1
   1   9   3  814.92   60.82   1
   1  10   3  228.76   36.04   1
  -1 -10  -3  191.80   28.92   1
  -1 -11  -3  107.66   22.01   1
   1  11   3   73.13   25.13   1
   1   0  -4    0.89    0.65   1
  -1   0   4    1.70    1.03   1
   1  -1  -4 4161.62   80.80   1
  -1  -1  -4 4115.20   91.80   1
  -1   1   4 4272.69   81.17   1
   1   2   4 6652.18  137.45   1
  -1   2   4 6732.26  129.89   1
  -1  -2  -4 6635.32  135.39   1
   1  -2  -4 6844.75  127.99   1
  -1  -3  -4 2677.97   78.02   1
   1   3   4 2694.31   79.00   1
   1  -3  -4 2715.42   73.50   1
  -1   3   4 2693.58   76.06   1
   1   4   4 3617.51  103.37   1
   1  -4  -4 3598.40   96.86   1
  -1   4   4 3629.51   99.69   1
  -1  -4  -4 3667.49  100.53   1
  -1  -5  -4  448.77   33.50   1
   1  -5  -4  434.15   32.88   1
  -1   5   4  399.83   34.71   1
   1   5   4  435.48   33.34   1
  -1  -6  -4  947.31   53.67   1
   1  -6  -4  983.20   53.35   1
   1   6   4  964.11   54.15   1
  -1   6   4  877.17   59.91   1
  -1   7   4  290.86   39.30   1
  -1  -7  -4  372.54   34.44   1
   1  -7  -4  337.32   34.00   1
   1   7   4  340.89   35.64   1
   1  -8  -4 1123.35   67.80   1
   1   8   4 1236.30   71.92   1
  -1  -8  -4 1174.60   70.88   1
   1   9   4 2014.70   95.62   1
  -1  -9  -4 2007.37   97.63   1
   1  10   4   16.85    8.91   1
  -1 -10  -4   17.18   12.32   1
   1  11   4   -2.57    5.74   1
  -1 -11  -4   16.46   12.88   1
  -1   0   5    0.76    1.26   1
   1   1   5  746.59   35.08   1
   1  -1  -5  775.88   29.18   1
  -1   1   5  773.65   29.32   1
  -1  -1  -5  819.00   37.22   1
   1   2   5 4144.37  104.49   1
   1  -2  -5 4353.19   95.96   1
  -1  -2  -5 4265.34  103.62   1
   1  -3  -5   22.32    6.71   1
  -1  -3  -5   36.65    9.01   1
  -1   3   5   21.11    5.74   1
   1   3   5   28.85    7.76   1
   1  -4  -5 6326.59  146.77   1
   1   4   5 6521.52  153.61   1
  -1   4   5 6618.18  149.51   1
  -1  -4  -5 6469.61  150.77   1
  -1  -5  -5 3516.70  106.90   1
  -1   5   5 3546.11  107.25   1
   1  -5  -5 3508.28  103.84   1
   1   5   5 3509.25  107.02   1
  -1   6   5 6488.37  169.78   1
   1   6   5 6144.60  160.95   1
  -1  -6  -5 6291.12  161.59   1
   1  -6  -5 5964.82  156.72   1
   1   7   5   52.50   14.24   1
  -1  -7  -5   72.33   14.69   1
  -1   7   5   61.70   17.56   1
   1  -7  -5   88.40   17.62   1
   1   8   5 2868.27  116.06   1
  -1   8   5 2571.81  122.59   1
   1  -8  -5 2667.16  107.02   1
  -1  -8  -5 2805.84  110.48   1
  -1   9   5  350.88   53.88   1
   1  -9  -5  410.57   42.60   1
  -1  -9  -5  486.15   45.52   1
   1   9   5  486.62   46.64   1
   1  10   5   60.69   18.63   1
  -1 -10  -5   76.34   19.48   1
   1 -10  -5   60.39   18.48   1
  -1 -11  -5 1022.39   77.77   1
   1  11   5  758.68   72.91   1
  -1   0   6   -3.12    1.53   1
   1  -1  -6  248.08   17.11   1
  -1   1   6  271.78   17.24   1
  -1  -2  -6 1234.60   51.48   1
  -1   2   6 1315.36   45.75   1
   1   2   6 1178.31   50.93   1
   1  -2  -6 1236.56   45.29   1
   1   3   612039.10  232.40   1
   1  -3  -611704.40  219.47   1
  -1  -3  -611940.00  228.97   1
  -1   3   612154.70  221.26   1
   1  -4  -6   24.94    8.05   1
  -1  -4  -6   31.93    9.04   1
   1   4   6   30.54    9.71   1
  -1   4   6   22.26    8.52   1
   1   5   618677.30  351.33   1
   1  -5  -619278.10  342.73   1
  -1   5   618599.10  344.31   1
  -1  -5  -619082.00  348.33   1
  -1  -6  -6  571.06   43.03   1
   1   6   6  561.17   43.06   1
  -1   6   6  532.98   40.63   1
   1  -6  -6  499.01   39.77   1
   1  -7  -6 1040.64   62.77   1
  -1  -7  -6 1075.36   63.51   1
  -1   7   6 1128.11   67.31   1
   1   7   6 1152.27   66.21   1
   1  -8  -6 6471.86  178.26   1
  -1  -8  -6 6198.16  179.71   1
  -1   8   6 5870.81  193.68   1
   1   8   6 5982.88  184.18   1
  -1  -9  -6   57.87   17.50   1
  -1   9   6   26.08   18.30   1
   1   9   6   38.58   14.73   1
   1  -9  -6   45.90   16.35   1
  -1  10   6  541.18   65.26   1
   1  10   6  685.98   60.80   1
   1 -10  -6  645.43   56.71   1
  -1 -10  -6  631.03   56.27   1
   1 -11  -6 1325.88   87.41   1
  -1   0   7   -2.46    2.83   1
  -1   1   7  360.68   22.28   1
   1  -1  -7  355.11   21.71   1
   1   1   7  340.09   26.47   1
  -1  -1   7  398.34   19.72   1
  -1  -2  -7 1593.01   62.58   1
   1  -2  -7 1848.94   58.25   1
  -1   2   7 1773.19   58.85   1
   1   2   7 1600.15   63.90   1
   1   3   7  338.91   30.86   1
  -1  -3  -7  323.86   28.64   1
   1  -3  -7  297.48   23.95   1
  -1   3   7  304.17   24.88   1
   1   4   7  349.70   31.04   1
  -1   4   7  355.78   30.31   1
  -1  -4  -7  324.07   29.60   1
   1  -4  -7  377.73   29.26   1
  -1  -5  -7 1574.13   70.66   1
   1   5   7 1513.46   71.98   1
  -1   5   7 1486.68   70.17   1
   1  -5  -7 1579.42   67.19   1
   1   6   7  168.29   23.87   1
  -1   6   7  197.00   24.96   1
  -1  -6  -7  154.35   21.89   1
   1  -6  -7  175.93   22.66   1
   1  -7  -7    6.68    6.10   1
  -1   7   7    1.40    7.60   1
  -1  -7  -7    6.05    4.27   1
   1   7   7   11.15    5.52   1
   1  -8  -7 1079.10   69.57   1
  -1  -8  -7 1128.09   69.70   1
   1   8   7 1198.59   74.05   1
  -1   8   7 1151.90   74.49   1
   1   9   7 1979.45  103.93   1
   1  -9  -7 1823.20   96.81   1
  -1  -9  -7 1886.91   96.62   1
  -1   9   7 1917.44  108.85   1
  -1  10   7    9.96   10.73   1
   1  10   7   -4.86   10.94   1
  -1 -10  -7   -0.21    5.84   1
   1 -10  -7   -4.55    7.15   1
  -1   0   8   -1.33    2.72   1
   1  -1  -8  384.18   24.26   1
  -1  -1   8  358.65   20.72   1
  -1   1   8  365.02   24.04   1
   1   1   8  365.25   28.61   1
  -1  -2  -8  572.24   37.25   1
  -1   2   8  507.62   32.26   1
   1  -2  -8  513.46   30.26   1
   1   2   8  545.63   37.36   1
  -1   3   8 1996.82   71.22   1
  -1  -3  -8 1990.51   75.41   1
   1   3   8 1992.91   77.62   1
   1  -3  -8 2022.75   68.95   1
   1  -4  -8 2239.48   78.53   1
   1   4   8 2254.26   85.82   1
  -1   4   8 2259.72   81.15   1
  -1  -4  -8 2137.70   81.44   1
  -1   5   8 3725.64  121.07   1
   1   5   8 3898.37  126.04   1
   1  -5  -8 3838.59  114.69   1
  -1  -5  -8 3935.08  122.40   1
  -1   6   8  970.05   59.56   1
  -1  -6  -8  925.59   57.89   1
   1  -6  -8  983.05   57.43   1
   1   6   8  954.82   59.26   1
  -1  -7  -8 5343.03  164.15   1
   1  -7  -8 5250.67  159.18   1
  -1   7   8 5497.11  162.39   1
   1   8   8  638.11   54.22   1
  -1   8   8  520.24   49.95   1
   1  -8  -8  567.55   48.61   1
  -1  -8  -8  615.74   51.60   1
  -1   9   8 1906.82  108.54   1
   1  -9  -8 1961.39   97.79   1
  -1  -9  -8 1997.02   99.92   1
   1   9   8 1920.95  105.72   1
   1 -10  -8   60.76   18.98   1
  -1  10   8   28.81   13.60   1
  -1   0   9    0.91    2.72   1
  -1  -1   9 5962.36  122.03   1
  -1   1   9 5930.10  129.67   1
   1   1   9 5915.54  145.05   1
   1   2   9  760.78   45.66   1
   1  -2  -9  761.71   38.79   1
  -1   2   9  732.83   40.02   1
  -1  -3  -9 1571.15   68.04   1
   1  -3  -9 1624.86   61.47   1
  -1   3   9 1669.36   65.19   1
   1   3   9 1598.35   70.61   1
  -1   4   9 2281.69   84.54   1
  -1  -4  -9 2376.09   88.68   1
   1  -4  -9 2438.43   83.89   1
   1   4   9 2327.32   90.98   1
   1   5   9 1624.84   79.66   1
  -1   5   9 1613.45   75.84   1
   1  -5  -9 1654.50   72.25   1
  -1  -5  -9 1724.70   77.12   1
  -1  -6  -9 8529.67  216.03   1
   1  -6  -9 9163.39  212.26   1
   1   6   9 9266.16  223.05   1
  -1   6   9 9183.28  222.33   1
  -1  -7  -9  423.54   41.15   1
  -1   7   9  393.49   40.69   1
   1  -7  -9  402.95   38.36   1
   1   7   9  357.06   39.00   1
  -1   8   9 1830.56   98.79   1
   1  -8  -9 1939.85   93.61   1
   1   8   9 2141.63  102.94   1
  -1  -8  -9 2096.87  100.64   1
   1  -9  -9  400.78   44.44   1
   1   9   9  416.44   49.02   1
  -1  -9  -9  373.37   43.23   1
  -1   9   9  411.85   48.17   1
  -1   0  10    0.96    3.07   1
   1   1  10 1021.75   52.99   1
  -1  -1  10 1025.11   42.39   1
  -1   1  10 1049.62   46.38   1
   1   2  10 3169.55  103.46   1
  -1   2  10 3269.87   96.38   1
   1  -2 -10 3239.86   91.11   1
   1  -3 -10  282.50   25.46   1
   1   3  10  224.88   26.28   1
  -1   3  10  277.34   26.17   1
  -1  -3 -10  225.91   25.89   1
   1   4  10 1136.51   62.81   1
  -1   4  10 1112.82   58.33   1
  -1  -4 -10 1126.59   61.89   1
   1  -4 -10 1158.35   56.40   1
   1   5  10 2480.59  102.61   1
  -1   5  10 2510.67   96.96   1
  -1  -5 -10 2381.92   95.23   1
   1  -5 -10 2585.11   93.75   1
  -1  -6 -10  220.95   28.48   1
   1  -6 -10  239.80   28.72   1
   1   6  10  232.71   30.24   1
  -1   6  10  224.08   30.39   1
  -1   7  10  267.21   33.37   1
   1   7  10  257.93   33.91   1
   1  -7 -10  253.36   31.38   1
  -1  -7 -10  282.23   35.44   1
   1  -8 -10  777.33   58.75   1
  -1   8  10  789.01   60.68   1
   1   8  10  807.10   63.72   1
  -1  -8 -10  827.01   62.26   1
  -1   9  10  724.82   65.32   1
   1  -9 -10  747.53   61.36   1
  -1   0  11   -1.06    2.26   1
  -1  -1  11  461.00   28.71   1
   1   1  11  485.54   37.64   1
  -1   1  11  492.67   32.16   1
   1   2  11 2372.34   90.06   1
  -1   2  11 2361.19   82.38   1
   1   3  11   25.25    9.80   1
  -1   3  11    8.72    5.46   1
   1  -3 -11    9.30    5.32   1
  -1  -4 -11 2794.18  104.15   1
   1   4  11 2850.90  107.18   1
   1  -4 -11 2742.06   93.14   1
  -1   4  11 2676.40   96.54   1
   1   5  11 1408.91   77.09   1
  -1  -5 -11 1472.01   75.05   1
  -1   5  11 1423.18   73.80   1
   1  -5 -11 1498.80   69.97   1
  -1   6  11 1886.90   93.82   1
  -1  -6 -11 1944.29   90.06   1
   1   6  11 2074.16   95.95   1
   1  -6 -11 2016.67   87.16   1
   1   7  11   34.32   11.25   1
  -1  -7 -11   12.68    8.00   1
  -1   7  11   28.12    5.17   1
   1  -7 -11   23.66   10.50   1
  -1   8  11 1169.77   77.04   1
   1  -8 -11 1161.33   72.19   1
  -1  -8 -11 1156.78   76.91   1
   1   8  11 1005.34   74.01   1
  -1   9  11   26.99   12.85   1
   1  -9 -11   58.37   17.14   1
  -1   0  12   -3.51    2.93   1
  -1   1  12  100.52   14.36   1
  -1  -1  12  111.57   14.39   1
  -1   2  12  307.17   28.91   1
   1   2  12  333.77   32.91   1
   1   3  12 2215.57   92.24   1
  -1   3  12 2274.67   86.70   1
   1  -3 -12 2066.31   75.99   1
  -1  -4 -12   31.13   10.47   1
   1   4  12   45.05   14.89   1
   1  -4 -12   51.00   12.97   1
  -1   4  12   43.66   10.92   1
   1  -5 -12 2277.58   88.96   1
   1   5  12 2388.20  107.03   1
  -1  -5 -12 2235.81   96.88   1
  -1   5  12 2241.85   93.88   1
   1  -6 -12  324.61   33.79   1
  -1  -6 -12  308.19   36.08   1
   1   6  12  368.20   40.72   1
  -1   6  12  279.32   34.94   1
  -1  -7 -12   19.57    9.93   1
   1  -7 -12    8.62    7.13   1
   1   7  12    4.67    6.73   1
  -1   7  12    4.24    5.75   1
  -1   8  12 2055.42  103.22   1
   1  -8 -12 1970.73   96.75   1
  -1   0  13   -8.97    6.73   1
   1   1  13  112.69   18.89   1
  -1   1  13  122.80   16.82   1
   1   2  13  209.12   26.72   1
  -1   2  13  282.46   27.71   1
   1   3  13  199.46   26.53   1
  -1   3  13  200.74   24.56   1
   1   4  13  888.30   59.75   1
  -1   4  13  863.76   53.91   1
  -1   5  13  374.90   37.58   1
   1   5  13  384.36   41.81   1
  -1  -5 -13  375.89   38.23   1
   1   6  13  757.48   58.84   1
  -1  -6 -13  706.25   55.74   1
  -1   6  13  729.64   57.64   1
  -1   7  13   20.84   11.21   1
   1  -8 -13    2.40    4.75   1
  -1   8  13  124.53   25.46   1
   1   1  14  128.46   20.57   1
   1   2  14   62.18   14.45   1
   1   3  14  393.88   38.55   1
   1   4  14  501.66   46.17   1
   1   5  14  572.88   52.01   1
   2   1   0 1788.63   44.17   1
  -2  -1   0 1834.71   44.71   1
   2   2   042928.00  629.31   1
  -2  -2   042572.80  628.59   1
   2   3   0  233.68   17.33   1
  -2  -3   0  272.68   18.77   1
   2   4   021684.70  360.47   1
  -2  -4   022792.80  362.19   1
   2   5   0 5430.53  130.05   1
  -2  -5   0 5520.09  129.93   1
   2   6   019945.50  352.30   1
  -2  -6   019304.20  346.84   1
   2   7   0  705.39   45.39   1
  -2  -7   0  694.26   44.22   1
   2   8   0 4464.81  143.74   1
  -2  -8   0 4809.06  139.21   1
  -2  -9   0 3443.64  122.61   1
   2   9   0 3449.21  134.75   1
   2  10   0  124.58   27.19   1
  -2 -10   0   60.88   14.27   1
  -2 -11   0 5132.47  168.57   1
  -2  -1  -116805.90  264.27   1
  -2  -1   116272.00  249.31   1
   2   1  -116205.20  249.06   1
   2   2  -1  275.81   14.86   1
  -2  -2  -1  287.79   18.15   1
  -2  -2   1  279.29   14.77   1
   2   2   1  277.38   18.36   1
   2   3   1 1779.63   55.91   1
   2   3  -1 1744.53   49.84   1
  -2  -3   1 1818.04   50.46   1
  -2  -3  -1 1757.28   54.71   1
   2   4  -1 1490.92   51.90   1
   2   4   1 1595.90   57.12   1
  -2  -4   1 1501.11   50.72   1
  -2  -4  -1 1544.42   55.11   1
  -2  -5  -1  757.75   40.44   1
  -2  -5   1  675.95   36.94   1
   2   5   1  725.71   40.00   1
   2   5  -1  713.50   37.74   1
  -2  -6   1  549.50   35.40   1
   2   6   1  527.46   36.82   1
  -2  -6  -1  520.45   37.52   1
   2   6  -1  514.00   36.18   1
   2   7  -1  493.69   39.89   1
  -2  -7  -1  441.13   37.06   1
   2   7   1  458.25   36.85   1
  -2  -7   1  417.82   34.77   1
   2   8   1  323.23   33.11   1
   2   8  -1  302.98   34.13   1
  -2  -8  -1  272.78   30.03   1
  -2  -8   1  253.05   28.15   1
   2   9   1 3710.88  134.30   1
   2   9  -1 3400.58  147.05   1
  -2  -9  -1 3942.92  131.83   1
  -2  -9   1 3770.24  127.81   1
   2  10   1 1650.48   93.12   1
  -2 -10  -1 1548.28   83.51   1
  -2 -10   1 1593.62   84.32   1
  -2 -11  -1 1367.99   81.63   1
   2  11   1 1264.38   93.33   1
  -2 -12  -1  297.69   40.56   1
   2  12   1  307.14   51.14   1
   2   1   211585.80  199.78   1
  -2  -2   2 3913.14   72.39   1
  -2  -2  -2 3797.40   87.99   1
   2   2  -2 3912.98   72.77   1
   2   2   2 3865.06   91.19   1
   2   3  -2 2205.35   55.36   1
   2   3   2 2022.37   64.48   1
  -2  -3   2 2054.49   53.67   1
  -2  -3  -2 2069.66   63.80   1
   2   4   2   13.87    5.85   1
   2   4  -2   15.04    5.35   1
  -2  -4   2   13.06    4.09   1
  -2  -4  -2   14.37    5.07   1
  -2  -5  -2   33.74    8.78   1
  -2  -5   2   33.33    7.95   1
   2   5  -2   36.95    9.39   1
   2   5   2   29.35    7.54   1
  -2  -6  -2 1152.03   57.51   1
  -2  -6   2 1135.77   52.66   1
   2   6   2 1154.83   58.61   1
   2   6  -2 1201.72   63.28   1
  -2  -7   2  954.56   51.97   1
   2   7   2  970.17   56.80   1
  -2  -7  -2  960.95   55.52   1
  -2  -8   2  127.00   19.58   1
  -2  -8  -2  151.33   22.91   1
   2   8   2  126.39   20.83   1
  -2  -9  -2 1259.83   74.68   1
  -2  -9   2 1300.25   69.92   1
   2   9   2 1345.38   74.62   1
   2  10   2 6439.68  203.68   1
  -2 -10  -2 7062.14  201.92   1
   2  11   2 1663.20  103.99   1
  -2 -11  -2 1697.15   95.08   1
   2   2   3 6846.26  144.63   1
  -2  -2  -3 7242.02  143.24   1
  -2  -3   337002.80  550.42   1
  -2  -3  -336667.60  583.06   1
  -2  -4  -3 6532.95  148.81   1
   2   4   3 6473.26  148.62   1
  -2  -4   3 6651.46  131.22   1
   2   5   312552.00  249.73   1
  -2  -5  -312491.00  246.68   1
  -2  -5   312549.00  231.01   1
  -2  -6  -3 1897.51   76.83   1
   2   6   3 1769.65   74.56   1
  -2  -6   3 1846.68   70.08   1
  -2  -7  -314480.20  296.19   1
  -2  -7   314380.40  284.94   1
   2   7   315030.30  300.21   1
  -2  -8  -3  216.93   27.80   1
   2   8   3  216.20   28.81   1
  -2  -9  -3 3589.54  132.17   1
   2   9   3 3610.49  135.45   1
   2  10   3  166.68   28.28   1
  -2 -10  -3  149.00   27.98   1
   2  11   3   74.14   21.54   1
  -2 -11  -3   60.83   20.09   1
   2  -1  -4  186.33   11.79   1
   2   2   4  236.74   21.20   1
  -2  -2  -4  238.62   20.56   1
   2  -2  -4  229.24   17.69   1
   2   3   4    4.00    3.60   1
  -2  -3  -4    2.79    2.56   1
  -2  -3   4    6.17    2.62   1
   2  -3  -4    9.38    4.53   1
   2   4   4 2557.68   85.39   1
   2  -4  -4 2395.34   78.92   1
  -2  -4   4 2535.32   64.71   1
  -2  -4  -4 2610.18   83.92   1
  -2  -5  -4  321.25   28.39   1
   2  -5  -4  308.78   28.45   1
   2   5   4  317.56   29.22   1
  -2  -5   4  329.76   24.03   1
  -2  -6  -4 1428.18   68.00   1
   2   6   4 1352.72   66.27   1
   2   7   4   10.37    6.32   1
  -2  -7  -4   15.64    7.30   1
  -2  -8  -4  858.47   57.23   1
   2   8   4  845.12   58.76   1
   2   9   4  681.52   58.97   1
  -2  -9  -4  733.08   56.39   1
   2  10   4 4533.67  163.97   1
  -2 -10  -4 4597.92  159.54   1
  -2 -11  -4  104.69   25.66   1
   2  11   4   76.86   18.45   1
  -2   1   513867.50  221.67   1
   2  -1  -513582.50  217.32   1
  -2   2   5  334.20   22.79   1
   2  -2  -5  300.45   19.31   1
   2   2   5  287.17   24.88   1
  -2  -2  -5  292.66   24.18   1
   2  -3  -5  239.08   19.95   1
   2   3   5  242.90   23.29   1
  -2   3   5  241.40   24.13   1
  -2  -3  -5  268.28   23.54   1
   2  -4  -5 1390.57   57.01   1
  -2  -4  -5 1485.28   62.96   1
   2   4   5 1407.86   63.11   1
  -2  -5  -5  526.68   37.94   1
   2   5   5  493.80   38.00   1
   2  -5  -5  424.32   34.30   1
  -2  -6  -5 1555.69   72.11   1
   2  -6  -5 1366.69   68.82   1
   2   6   5 1538.27   72.71   1
   2   7   5   45.99   15.77   1
  -2  -7  -5   62.71   22.81   1
   2  -7  -5    5.74    6.58   1
  -2  -8  -5  310.67   35.64   1
   2   8   5  289.72   34.64   1
  -2  -9  -5 4171.12  147.55   1
   2   9   5 4044.25  149.73   1
  -2 -10  -5 4040.79  150.40   1
   2  10   5 4050.62  155.81   1
  -2   0   6  126.03    8.63   1
  -2   1   6  204.86   14.42   1
   2  -1  -6  206.35   13.76   1
   2  -2  -618819.50  305.96   1
  -2  -2  -619108.10  333.00   1
   2   2   618348.20  334.33   1
  -2   2   619442.60  308.54   1
  -2   3   6 1203.03   51.03   1
   2  -3  -6 1115.56   47.07   1
   2   3   6 1157.64   56.47   1
  -2   4   6 8039.31  185.94   1
  -2  -4  -6 8341.09  187.26   1
   2  -4  -6 8130.11  171.40   1
   2   4   6 8263.17  188.95   1
  -2  -5  -6 2375.99   90.06   1
   2   5   6 2275.61   88.85   1
  -2   5   6 2163.07   93.86   1
   2  -5  -6 2316.93   81.86   1
  -2  -6  -6 8285.76  199.35   1
   2  -6  -6 8226.90  189.56   1
   2   6   6 8208.17  205.35   1
  -2  -7  -6   11.59    7.17   1
   2  -7  -6    8.62    5.34   1
   2   7   6    6.69   15.33   1
  -2  -8  -6 1995.62   93.37   1
   2  -8  -6 1718.83   86.32   1
   2   8   6 1996.89   95.73   1
  -2  -9  -6 1657.74   89.83   1
   2   9   6 1631.41   90.69   1
   2  -9  -6 1569.36   87.31   1
  -2 -10  -6  122.23   25.17   1
   2  10   6  112.13   26.30   1
  -2   0   7   17.34    3.88   1
  -2   1   7 2591.48   62.71   1
   2  -1  -7 2636.07   60.66   1
   2   2   7   25.12    8.98   1
   2  -2  -7   30.95    6.83   1
  -2   2   7   22.28    6.96   1
   2  -3  -7 4928.05  115.90   1
  -2  -3  -7 5151.47  134.29   1
   2   3   7 5112.69  136.25   1
  -2   3   7 5000.89  118.39   1
   2  -4  -7   33.31    8.69   1
  -2  -4  -7   16.97    7.53   1
  -2   4   7   20.09    7.26   1
   2   4   7   20.52    9.49   1
   2   5   7  196.83   25.27   1
  -2   5   7  163.72   24.30   1
  -2  -5  -7  180.40   23.87   1
   2  -5  -7  154.88   20.56   1
  -2   6   7    6.03    6.50   1
   2   6   7    5.31    4.78   1
  -2  -6  -7   14.70    6.42   1
   2  -6  -7   10.93    5.74   1
   2  -7  -7 1676.78   78.78   1
   2   7   7 1709.10   85.06   1
  -2   7   7 1535.21   93.34   1
  -2  -7  -7 1718.80   85.00   1
  -2  -8  -7   14.92   10.70   1
   2  -8  -7    5.09    3.59   1
  -2  -9  -7 1070.49   72.06   1
   2   9   7 1055.55   73.45   1
   2  -9  -7  973.59   67.91   1
   2 -10  -7   -2.99    7.48   1
  -2   0   8 7163.25  131.22   1
  -2   1   8 5497.77  112.12   1
   2  -1  -8 5953.72  111.89   1
  -2   2   8 2603.49   75.93   1
   2  -2  -8 2678.95   71.53   1
   2   2   8 2767.83   93.93   1
   2   3   8  491.87   38.94   1
  -2  -3  -8  453.55   36.92   1
   2  -3  -8  552.82   32.30   1
  -2   3   8  513.92   33.68   1
   2   4   8  320.63   32.46   1
  -2  -4  -8  336.89   31.94   1
  -2   4   8  323.80   29.09   1
   2  -4  -8  339.29   27.39   1
  -2   5   8  121.29   19.63   1
   2  -5  -8  118.58   18.20   1
   2   5   8  133.19   21.72   1
  -2  -5  -8  122.74   20.65   1
   2   6   8  746.48   54.94   1
   2  -6  -8  773.42   50.21   1
  -2   6   8  768.80   59.63   1
  -2  -6  -8  763.34   53.93   1
  -2   7   8  526.64   53.01   1
   2  -7  -8  544.39   46.37   1
   2   7   8  679.37   53.09   1
  -2  -7  -8  693.46   53.45   1
   2  -8  -8  536.37   49.39   1
  -2   8   8  459.10   53.83   1
   2   8   8  546.43   49.38   1
  -2  -8  -8  569.01   50.63   1
  -2  -9  -8  645.97   56.90   1
   2  -9  -8  571.34   53.69   1
   2   9   8  701.48   60.16   1
   2 -10  -8 4441.61  164.87   1
  -2   0   9 2468.92   63.70   1
   2  -1  -9  133.94   11.79   1
  -2  -1   9  124.79   10.93   1
  -2   1   9  122.04   13.27   1
   2   2   9 1848.66   77.40   1
   2  -2  -9 1826.40   57.83   1
  -2   2   9 1806.34   61.56   1
   2   3   9 7263.59  182.55   1
  -2  -3  -9 7568.70  183.51   1
   2  -3  -9 7760.72  159.45   1
  -2   3   9 7086.57  164.75   1
  -2   4   9   63.08   13.24   1
  -2  -4  -9   74.83   17.90   1
   2  -4  -9   66.10   14.34   1
   2   4   9  106.27   21.09   1
  -2   5   9 3110.50  106.99   1
   2   5   9 3102.98  115.75   1
  -2  -5  -9 3176.31  113.38   1
   2  -5  -9 3106.02  100.53   1
  -2   6   9 1244.58   71.20   1
   2  -6  -9 1331.59   66.07   1
   2   6   9 1198.99   73.24   1
  -2  -6  -9 1261.09   70.67   1
   2  -7  -9 4533.08  140.41   1
  -2   7   9 4198.25  157.14   1
   2   7   9 4635.72  156.31   1
  -2  -7  -9 4371.18  149.32   1
  -2  -8  -9   -7.99    4.72   1
   2  -8  -9  -10.17    9.51   1
  -2   8   9  -20.11   10.53   1
   2   8   9    9.30    9.08   1
  -2   9   9  728.70   78.13   1
   2  -9  -9  889.72   65.02   1
   2 -10  -9   75.44   20.48   1
  -2   0  10 1015.07   38.88   1
  -2  -1  10  273.49   17.85   1
  -2   1  10  285.48   21.40   1
   2  -2 -10  142.73   15.74   1
  -2   2  10  142.70   16.93   1
  -2  -2  10  140.94   12.03   1
   2   2  10  132.06   19.73   1
   2  -3 -10   38.71    9.58   1
  -2   3  10   27.77    9.81   1
   2   3  10   45.28   12.79   1
   2   4  10 3196.86  116.72   1
  -2  -4 -10 2924.76  109.20   1
   2  -4 -10 3123.27   96.42   1
  -2   4  10 2977.29   99.78   1
   2   5  10  331.68   36.18   1
  -2  -5 -10  330.50   35.29   1
  -2   5  10  319.31   31.80   1
   2  -5 -10  334.01   30.89   1
  -2   6  10  602.75   50.67   1
  -2  -6 -10  744.89   54.69   1
   2   6  10  711.21   56.97   1
   2  -6 -10  704.42   48.30   1
  -2   7  10  140.17   26.85   1
  -2  -7 -10  143.36   26.12   1
   2   7  10  141.60   26.41   1
   2  -7 -10  157.15   23.57   1
   2  -8 -10 1903.80   91.33   1
  -2  -8 -10 1887.43   98.67   1
   2  -9 -10  147.51   25.66   1
  -2   9  10  113.80   32.12   1
  -2   0  11 2077.75   62.70   1
  -2   1  11 5115.03  115.26   1
  -2  -1  11 4810.06  104.58   1
  -2   2  11  118.29   15.93   1
   2  -2 -11  125.87   15.58   1
  -2  -2  11   94.39   10.53   1
   2   2  11  123.13   22.33   1
   2  -3 -11  146.31   17.60   1
  -2   3  11  108.08   17.36   1
   2   3  11  113.35   20.41   1
  -2  -4 -11   84.92   18.51   1
  -2   4  11   50.38   12.10   1
   2   4  11   77.44   17.67   1
  -2  -5 -11   30.99   11.85   1
   2  -5 -11   33.57   10.95   1
   2   5  11   25.55    8.26   1
  -2   6  11  704.32   53.06   1
  -2  -6 -11  711.54   55.48   1
   2   6  11  655.25   55.77   1
   2  -6 -11  675.91   48.26   1
   2  -7 -11    2.84    7.74   1
  -2  -7 -11   -5.22    6.43   1
   2   7  11    0.20    8.83   1
  -2   7  11    8.92    8.91   1
  -2   8  11   19.83   19.68   1
   2  -8 -11    4.88    4.90   1
   2  -9 -11 1572.85   88.97   1
  -2   9  11 1410.58  102.87   1
  -2   0  12    7.88    3.40   1
  -2   1  12  123.91   14.83   1
  -2  -1  12  135.15   14.12   1
  -2   2  12 2697.83   84.35   1
   2   2  12 2864.71  106.58   1
  -2   3  12  862.33   49.51   1
   2   3  12  890.51   58.73   1
   2  -4 -12 1048.72   53.96   1
  -2   4  12 1094.28   62.43   1
  -2  -5 -12  843.38   60.06   1
  -2   5  12  900.38   55.19   1
   2   5  12  855.55   62.82   1
   2  -5 -12  879.77   52.02   1
   2   6  12 2165.27  107.88   1
  -2   6  12 2319.30  100.17   1
  -2  -6 -12 2222.74  103.34   1
   2  -6 -12 2340.34   94.32   1
   2  -7 -12  201.78   27.50   1
  -2   7  12  190.47   31.68   1
  -2   8  12  182.49   35.48   1
   2  -8 -12  196.43   29.61   1
   2   2  13    4.09    3.93   1
   2   3  13 3589.64  129.89   1
   2   4  13   14.84   10.57   1
  -2   4  13    0.26    5.81   1
  -2   5  13   16.70    8.40   1
  -2  -5 -13   16.14    7.02   1
   2   5  13   17.19    7.68   1
  -2   6  13   57.89   16.64   1
  -2   7  13 1132.91   76.42   1
  -2   8  13    3.82   10.48   1
   2   2  14  380.82   39.68   1
   2   3  14   34.91   12.05   1
   2   4  14   63.26   17.26   1
   2   3  15  874.63   65.14   1
   3   2   057734.20  858.51   1
  -3  -2   058907.90  856.90   1
   3   3   020033.90  331.95   1
  -3  -3   020820.70  331.93   1
  -3  -4   0 6363.87  135.84   1
   3   4   0 6454.42  137.40   1
   3   5   0  119.53   15.74   1
  -3  -5   0  117.32   15.87   1
  -3  -6   057214.60  878.49   1
   3   6   056820.40  880.93   1
   3   7   0 9418.88  212.93   1
  -3  -7   0 9271.73  207.67   1
   3   8   0   18.74    7.73   1
  -3  -8   0   11.27    4.94   1
  -3  -9   0 8860.13  223.60   1
   3   9   0 9320.12  223.33   1
  -3 -10   0 1088.04   69.67   1
   3  10   0 1013.87   69.97   1
   3  11   0  456.41   50.74   1
  -3 -11   0  436.66   45.95   1
   3  12   0 3509.67  169.46   1
  -3 -12   0 3530.54  144.15   1
   3   2   1 4682.40  104.35   1
  -3  -2  -1 4782.46  105.24   1
  -3  -2   1 4833.79   96.33   1
   3   2  -1 4959.17   97.48   1
   3   3   1 2152.14   66.98   1
   3   3  -1 2258.23   60.89   1
  -3  -3  -1 2231.87   66.44   1
  -3  -3   1 2247.58   60.89   1
  -3  -4   110797.60  194.38   1
   3   4   110400.50  204.72   1
  -3  -4  -110162.20  202.94   1
   3   4  -110736.80  195.96   1
  -3  -5   1   58.69   10.88   1
  -3  -5  -1   72.97   13.72   1
   3   5  -1   53.23    9.36   1
   3   5   1   71.60   13.06   1
  -3  -6  -1 6191.62  154.84   1
  -3  -6   1 6276.84  149.09   1
   3   6  -1 6487.66  153.46   1
   3   6   1 6379.80  156.07   1
  -3  -7  -1  737.90   47.69   1
  -3  -7   1  763.38   47.30   1
   3   7   1  760.17   48.59   1
   3   7  -1  775.96   48.04   1
   3   8  -1  746.00   49.89   1
  -3  -8  -1  760.86   50.27   1
  -3  -8   1  776.72   50.50   1
   3   8   1  676.83   50.67   1
  -3  -9  -1 2766.66  108.63   1
   3   9  -1 2842.64  115.79   1
  -3  -9   1 2853.85  109.12   1
   3   9   1 2797.39  113.71   1
  -3 -10  -1   45.44   15.59   1
   3  10   1   49.21   17.12   1
  -3 -10   1   37.32   10.88   1
   3  10  -1   13.93    9.06   1
   3  11   1  332.81   42.63   1
   3  11  -1  338.59   46.28   1
  -3 -11  -1  279.00   36.25   1
  -3 -11   1  339.31   38.78   1
  -3 -12  -1 1132.27   81.97   1
  -3 -12   1 1239.48   79.66   1
   3   2  -2 1030.56   31.74   1
   3   2   2 1012.52   43.07   1
  -3  -2   2 1037.44   32.10   1
  -3  -2  -2  967.58   42.59   1
  -3  -3  -2  121.50   14.52   1
   3   3  -2  114.09   11.29   1
   3   3   2  133.62   15.44   1
  -3  -3   2  123.62   11.52   1
   3   4   2  750.12   41.78   1
  -3  -4   2  791.95   34.87   1
   3   4  -2  762.69   34.51   1
  -3  -4  -2  810.15   42.36   1
  -3  -5  -214757.70  278.01   1
  -3  -5   214762.50  260.42   1
   3   5   214910.50  280.32   1
   3   5  -214510.80  265.81   1
   3   6  -2 4496.94  115.69   1
  -3  -6   2 4298.97  115.60   1
   3   6   2 4168.55  124.35   1
  -3  -6  -2 4244.38  124.01   1
   3   7  -2 1823.34   74.57   1
  -3  -7  -2 1713.29   76.76   1
  -3  -7   2 1741.25   70.33   1
   3   7   2 1707.40   77.24   1
   3   8  -2 1871.74   85.09   1
  -3  -8  -2 1768.92   83.05   1
   3   8   2 1781.39   82.77   1
  -3  -8   2 1743.89   75.26   1
  -3  -9  -2  152.83   24.98   1
   3   9  -2  149.92   24.52   1
  -3  -9   2  134.96   19.86   1
   3   9   2  159.32   26.74   1
   3  10   2  310.65   37.96   1
  -3 -10  -2  293.30   36.58   1
  -3 -10   2  331.88   36.16   1
  -3 -11  -2 1353.16   83.49   1
  -3 -11   2 1266.11   75.51   1
   3  11   2 1334.04   83.86   1
  -3 -12   2   21.70    9.39   1
   3   2  -320881.60  316.60   1
  -3  -2   321060.00  316.05   1
  -3  -2  -321989.00  356.60   1
   3   2   321828.30  357.70   1
  -3  -3   3 6461.36  117.75   1
   3   3   3 6334.30  146.83   1
   3   3  -3 6630.05  120.01   1
  -3  -3  -3 6606.96  146.38   1
   3   4  -3 1743.64   53.18   1
   3   4   3 1562.06   65.34   1
  -3  -4   3 1616.25   50.20   1
  -3  -4  -3 1691.60   66.57   1
   3   5  -347304.70  720.94   1
   3   5   347516.60  746.85   1
  -3  -5   346374.40  716.07   1
  -3  -5  -348011.50  746.96   1
  -3  -6  -3  464.42   37.12   1
   3   6  -3  528.94   37.21   1
   3   6   3  467.60   39.12   1
  -3  -6   3  492.34   32.37   1
   3   7  -3  230.88   27.40   1
   3   7   3  195.89   25.39   1
  -3  -7  -3  176.90   24.13   1
  -3  -7   3  198.67   21.64   1
  -3  -8  -315157.60  317.87   1
   3   8   315193.30  319.13   1
  -3  -8   315282.90  297.97   1
  -3  -9  -3 3951.47  139.07   1
  -3  -9   3 3893.01  125.53   1
   3   9   3 3854.06  141.43   1
  -3 -10  -3 1858.36   96.44   1
   3  10   3 1864.72  100.42   1
  -3 -10   3 1812.20   85.42   1
  -3 -11  -3 2957.16  131.12   1
  -3 -11   3 3028.39  119.19   1
   3  11   3 3119.38  134.56   1
  -3  -2  -4 8233.73  173.81   1
   3   2   4 7899.59  170.10   1
   3   3  -4  477.88   23.33   1
  -3  -3   4  509.16   20.28   1
  -3  -3  -4  542.89   36.03   1
   3   3   4  562.27   37.77   1
   3   4   4 1266.35   60.28   1
  -3  -4   4 1264.71   42.18   1
  -3  -4  -4 1251.63   58.67   1
   3   5   4 7977.95  189.16   1
  -3  -5   4 8144.34  157.56   1
  -3  -5  -4 8246.59  190.17   1
   3   6   4    3.14    6.06   1
  -3  -6  -4   -1.25    4.16   1
  -3  -6   4    0.90    2.66   1
  -3  -7   4  221.90   22.79   1
  -3  -7  -4  235.16   28.63   1
   3   7   4  235.78   28.74   1
  -3  -8  -4 3499.22  126.45   1
  -3  -8   4 3448.25  108.76   1
   3   8   4 3465.28  126.35   1
  -3  -9  -4 1461.78   82.00   1
   3   9   4 1543.37   83.86   1
  -3  -9   4 1457.92   71.84   1
  -3 -10   4   28.67   11.76   1
   3  10   4   46.91   14.60   1
  -3 -10  -4   47.34   17.97   1
   3  -1  -5   54.36    7.09   1
   3   2   5  291.13   27.06   1
   3  -2  -5  294.44   20.10   1
  -3  -3   5  294.98   13.87   1
   3   3   5  342.50   30.35   1
  -3  -3  -5  342.53   29.64   1
   3  -3  -5  331.82   24.25   1
   3   4   5 8709.92  196.80   1
  -3  -4  -5 8619.89  192.98   1
  -3  -4   5 8620.56  151.59   1
   3   5   5 2485.63   95.27   1
  -3  -5   5 2447.41   68.09   1
  -3  -5  -5 2599.86   95.70   1
  -3  -6   5 6977.87  147.80   1
   3   6   5 6989.71  182.30   1
  -3  -6  -5 6999.25  181.40   1
  -3  -7  -5 3249.03  119.14   1
   3   7   5 3278.96  122.16   1
  -3  -7   5 3271.41   96.35   1
  -3  -8   5    2.06    4.33   1
  -3  -8  -5   11.93    6.72   1
   3   8   5   -6.63    7.39   1
  -3  -9  -5  843.59   61.49   1
   3   9   5  735.57   60.28   1
  -3  -9   5  660.36   45.52   1
   3  10   5  218.08   33.24   1
  -3 -10  -5  212.76   32.79   1
   3  -1  -6 9154.31  153.52   1
   3  -2  -613190.10  224.68   1
   3   2   613545.90  261.69   1
   3  -3  -6 7109.85  146.36   1
  -3  -3  -6 6795.65  168.63   1
   3   3   6 7276.37  173.46   1
   3   4   6 2157.47   86.11   1
   3  -4  -6 2088.66   73.95   1
  -3  -4   6 2081.17   52.74   1
  -3  -4  -6 2240.59   86.02   1
  -3  -5  -6    0.63    4.01   1
  -3  -5   6    8.81    4.69   1
   3  -5  -6    7.25    4.15   1
   3   5   6    2.42    4.70   1
   3   6   626082.00  464.88   1
  -3  -6   624254.30  408.33   1
   3  -6  -624569.70  446.51   1
  -3  -6  -626503.30  465.26   1
   3   7   6 4809.90  156.85   1
  -3  -7   6 4657.92  123.03   1
  -3  -7  -6 4765.48  150.65   1
   3   8   6   52.63   15.00   1
  -3  -8  -6   52.16   15.29   1
  -3  -9  -6 4843.23  164.58   1
   3   9   6 4833.61  166.11   1
   3  -1  -7 3428.36   72.26   1
   3  -2  -7 4303.26   94.58   1
   3  -3  -7 2384.41   72.51   1
  -3  -3  -7 2517.30   91.21   1
   3   3   7 2424.40   93.73   1
   3  -4  -7 2009.93   69.21   1
  -3  -4  -7 2079.57   85.20   1
  -3  -5   7 4491.63  100.39   1
   3   5   7 4759.37  144.89   1
   3  -5  -7 4668.19  124.75   1
  -3  -5  -7 4816.64  141.44   1
   3   6   7 1483.34   78.17   1
   3  -6  -7 1378.67   66.19   1
  -3  -6  -7 1480.08   76.31   1
  -3  -6   7 1361.73   52.03   1
   3  -7  -7  152.80   23.63   1
   3   7   7  172.42   26.84   1
  -3  -7  -7  177.82   27.18   1
   3   8   7 2118.09  101.54   1
   3  -8  -7 1942.29   93.03   1
  -3  -8  -7 1834.55   93.10   1
   3   9   7 4801.45  169.09   1
  -3  -9  -7 4595.39  163.61   1
  -3   0   8    0.42    2.57   1
  -3   1   8  317.17   23.53   1
   3  -1  -8  415.39   19.97   1
   3  -2  -8 1033.24   39.38   1
   3  -3  -8  573.39   32.05   1
  -3  -3  -8  525.55   40.98   1
   3   3   8  560.80   43.68   1
   3   4   8 1627.08   78.24   1
   3  -4  -8 1624.52   62.14   1
  -3  -4  -8 1582.28   76.23   1
   3   5   8 8496.65  214.80   1
   3  -5  -8 8219.15  189.13   1
  -3  -5  -8 8615.79  210.82   1
   3  -6  -8 2762.69   99.03   1
  -3  -6  -8 2807.28  110.29   1
   3   6   8 2822.60  114.03   1
   3   7   8 1391.56   83.55   1
   3  -7  -8 1358.86   71.38   1
  -3  -7  -8 1485.81   82.47   1
   3   8   8  614.90   55.22   1
   3  -8  -8  543.43   47.60   1
  -3  -8  -8  622.95   54.72   1
   3  -9  -8    0.90    9.39   1
  -3   0   9    1.37    2.11   1
  -3   1   9  848.64   37.91   1
   3  -1  -9  958.42   33.62   1
   3  -2  -9 4918.26  105.96   1
  -3   2   9 4659.51  119.18   1
   3  -3  -9 2423.44   72.97   1
   3   3   9 2533.94  100.36   1
   3  -4  -9  435.42   30.94   1
  -3  -4  -9  369.78   35.94   1
   3   4   9  384.46   38.81   1
  -3   4   9  360.54   38.20   1
   3   5   9 9167.91  232.22   1
   3  -5  -9 9183.26  199.41   1
  -3  -5  -9 9012.67  225.34   1
   3   6   9   73.88   17.35   1
   3  -6  -9   44.93   11.95   1
  -3  -6  -9   62.35   16.16   1
  -3  -7  -9  347.35   39.50   1
   3   7   9  360.29   42.01   1
   3  -7  -9  305.82   34.33   1
   3  -8  -9 4680.29  151.94   1
  -3  -8  -9 5217.66  171.51   1
   3  -9  -9  694.42   57.76   1
   3 -10  -9  453.25   49.82   1
  -3   0  10    4.02    1.90   1
  -3   1  10 1583.46   50.55   1
  -3  -1  10 1158.51   33.56   1
  -3   2  10 4743.64  116.77   1
   3  -2 -10 4730.90  105.55   1
  -3   3  10  956.07   51.93   1
   3  -3 -10 1089.71   45.80   1
   3   3  10 1038.24   69.08   1
   3  -4 -10 2889.58   88.36   1
   3   4  10 2807.17  114.06   1
   3  -5 -10 1758.77   71.51   1
   3   5  10 1676.28   88.35   1
  -3  -5 -10 1654.89   84.70   1
   3  -6 -10 1297.70   65.61   1
   3   6  10 1275.17   78.74   1
  -3  -6 -10 1274.10   76.20   1
   3  -7 -10   31.93   10.89   1
  -3  -7 -10   37.43   15.69   1
   3   7  10   35.25   12.85   1
   3  -8 -10 2316.65  100.73   1
   3  -9 -10 1907.42   97.53   1
  -3   0  11   -3.52    2.45   1
  -3   1  11   23.30    5.88   1
  -3  -1  11   16.94    4.11   1
   3  -2 -11   62.29    9.12   1
  -3  -2  11   30.80    4.56   1
  -3   2  11   50.46    9.68   1
  -3   3  11   89.60   16.48   1
   3  -3 -11   97.50   12.91   1
   3   3  11  106.87   22.04   1
  -3  -3  11   57.41    5.86   1
  -3   4  11 3436.21  119.13   1
   3  -4 -11 3696.48  104.19   1
   3   4  11 3296.45  127.63   1
   3  -5 -11  696.79   44.47   1
  -3   5  11  518.22   50.55   1
   3   5  11  638.35   54.92   1
  -3  -5 -11  596.03   50.96   1
   3  -6 -11 3217.01  109.15   1
  -3   6  11 2852.48  130.61   1
   3   6  11 3289.02  133.71   1
  -3  -6 -11 3186.04  128.28   1
   3  -7 -11 2284.74   95.95   1
   3  -8 -11    2.61    4.72   1
   3  -9 -11  469.29   47.76   1
  -3   1  12 1707.20   56.54   1
  -3   2  12 1154.36   51.68   1
   3   3  12 1111.36   70.12   1
  -3   3  12  978.84   53.94   1
  -3   4  12   66.21   16.94   1
   3   4  12   43.68   15.28   1
   3   5  12   96.54   21.87   1
  -3  -5 -12   70.27   18.48   1
  -3   5  12   87.73   18.86   1
  -3   6  12 3314.70  143.47   1
   3   3  13  817.67   63.16   1
   3   4  13  272.19   36.95   1
   4   2   0 1407.29   50.55   1
  -4  -3   0 1508.73   56.46   1
   4   3   0 1557.52   56.81   1
   4   4   0 2815.09   84.65   1
  -4  -4   0 2765.88   83.92   1
   4   5   0 4187.59  112.60   1
  -4  -5   0 4142.57  112.30   1
  -4  -6   0 1468.49   65.12   1
   4   6   0 1749.01   72.84   1
  -4  -7   0 2420.56   90.81   1
   4   7   0 2531.84   91.57   1
  -4  -8   0 3010.48  107.84   1
   4   8   0 2988.51  108.38   1
  -4  -9   010522.50  244.15   1
   4   9   010010.50  251.49   1
  -4 -10   0 2721.47  113.13   1
   4  10   0 2770.85  115.04   1
   4  11   013555.70  316.75   1
  -4 -11   013067.20  307.62   1
   4  12   0 1155.06   86.77   1
  -4 -12   0 1441.62   87.08   1
   4   2  -1 2590.40   68.65   1
   4   2   1 2604.41   78.49   1
   4   3  -1 1784.81   58.47   1
  -4  -3  -1 1799.46   64.27   1
  -4  -3   1 1870.31   58.84   1
   4   3   1 1733.59   64.73   1
   4   4   1 5154.54  130.47   1
  -4  -4   1 5341.47  120.94   1
   4   4  -1 5397.08  122.63   1
  -4  -4  -1 5026.50  125.63   1
   4   5   1  248.31   25.32   1
  -4  -5   1  226.23   21.82   1
   4   5  -1  251.20   24.07   1
  -4  -5  -1  267.26   25.78   1
  -4  -6  -1 1425.98   65.74   1
  -4  -6   1 1394.82   60.55   1
   4   6   1 1348.09   65.73   1
   4   6  -1 1438.47   61.68   1
   4   7   1  178.04   23.54   1
   4   7  -1  186.81   22.15   1
  -4  -7  -1  181.83   24.40   1
  -4  -7   1  183.93   22.30   1
  -4  -8  -1 1354.72   70.73   1
  -4  -8   1 1379.05   67.61   1
   4   8   1 1262.54   69.24   1
   4   8  -1 1346.95   70.37   1
   4   9  -1   13.75    8.94   1
  -4  -9   1    4.19    5.97   1
   4   9   1   13.88   10.86   1
  -4  -9  -1    0.64    6.92   1
  -4 -10  -1  598.10   51.00   1
  -4 -10   1  575.82   48.67   1
   4  10  -1  564.50   50.27   1
   4  10   1  602.44   54.54   1
  -4 -11  -1  365.59   41.34   1
   4  11   1  426.36   45.48   1
   4  11  -1  429.70   46.21   1
  -4 -11   1  389.56   42.32   1
   4  12  -1 1351.82   94.14   1
  -4 -12   1 1265.63   81.90   1
   4   2  -2 1407.23   43.87   1
   4   3  -213118.90  223.49   1
  -4  -3   213160.80  222.51   1
  -4  -3  -212441.60  244.34   1
   4   3   212997.40  247.71   1
   4   4   2 1407.57   62.11   1
   4   4  -2 1420.85   51.57   1
  -4  -4  -2 1418.16   60.51   1
  -4  -4   2 1438.92   51.74   1
  -4  -5   2   27.35    7.55   1
  -4  -5  -2   22.94    8.15   1
   4   5   2   29.52    9.90   1
   4   5  -2   16.80    6.94   1
   4   6   2   36.20    9.20   1
   4   6  -2   34.26    9.52   1
  -4  -6  -2   33.94   11.32   1
  -4  -6   2   33.65    8.42   1
  -4  -7  -2 5121.28  147.49   1
  -4  -7   2 5190.81  136.65   1
   4   7   2 5071.65  149.82   1
   4   7  -2 5181.89  140.88   1
  -4  -8  -2 1044.97   63.14   1
  -4  -8   2 1053.05   57.64   1
   4   8  -2 1106.99   58.66   1
   4   8   2 1013.77   62.67   1
  -4  -9   2   79.43   16.25   1
   4   9   2   56.82   16.01   1
   4   9  -2   92.06   34.77   1
  -4  -9  -2   86.33   19.01   1
   4  10  -2  104.00   21.95   1
  -4 -10   2  130.97   23.55   1
   4  10   2  111.76   24.01   1
  -4 -10  -2  139.86   28.92   1
  -4 -11  -2   12.15    4.38   1
   4  11  -2   24.45   14.50   1
   4  11   2   17.52    9.96   1
  -4 -11   2   26.47   11.29   1
  -4 -12   2  669.85   57.59   1
   4  12  -2  618.40   72.59   1
   4   2  -3 5830.23  108.46   1
   4   3  -3 2628.20   65.46   1
  -4  -3  -3 2623.78   87.38   1
  -4  -3   3 2695.37   65.04   1
   4   3   3 2717.70   89.36   1
   4   4   3 3984.81  117.81   1
   4   4  -3 4136.12   95.00   1
  -4  -4  -3 4168.92  117.93   1
  -4  -4   3 4196.01   95.32   1
  -4  -5   3  786.38   38.09   1
   4   5   3  783.30   49.22   1
   4   5  -3  792.56   38.79   1
  -4  -5  -3  852.59   50.51   1
  -4  -6   3  129.82   16.90   1
   4   6   3  124.25   21.58   1
  -4  -6  -3  145.29   22.83   1
   4   6  -3  120.83   17.31   1
  -4  -7   3   16.54    7.95   1
   4   7  -3   20.48    8.74   1
   4   7   3    7.97    6.78   1
  -4  -7  -3   13.26    6.53   1
   4   8  -3  374.97   34.82   1
   4   8   3  345.54   37.29   1
  -4  -8   3  343.91   31.99   1
  -4  -8  -3  329.72   35.37   1
  -4  -9  -3  592.61   49.46   1
   4   9  -3  579.32   50.54   1
  -4  -9   3  592.02   45.68   1
   4   9   3  574.06   50.12   1
  -4 -10  -3 2887.11  123.17   1
   4  10  -3 2886.03  130.60   1
  -4 -10   3 2968.82  115.65   1
   4  10   3 2877.38  124.08   1
  -4 -11   3 2247.84  103.38   1
  -4 -12   3  890.83   67.22   1
   4   2  -4   18.64    3.23   1
   4   3  -4 7995.91  139.90   1
  -4  -3  -4 7846.50  180.60   1
  -4  -3   4 8172.80  139.06   1
   4   3   4 7559.21  181.89   1
  -4  -4  -4  438.20   36.44   1
   4   4  -4  447.40   25.45   1
  -4  -4   4  433.71   23.46   1
   4   4   4  434.28   36.71   1
   4   5  -4   19.68    5.87   1
  -4  -5  -4   20.25    7.80   1
   4   5   4   19.68    8.34   1
  -4  -5   4   16.05    4.44   1
   4   6   4   32.39   11.22   1
   4   6  -4   33.56    8.94   1
  -4  -6   4   29.61    7.08   1
  -4  -6  -4   23.81    9.32   1
   4   7  -4 3457.62  113.96   1
  -4  -7   4 3560.10  102.30   1
   4   7   4 3449.14  125.47   1
  -4  -7  -4 3400.70  123.13   1
  -4  -8  -4  498.60   45.16   1
   4   8  -4  508.33   45.12   1
  -4  -8   4  514.13   38.06   1
   4   8   4  475.84   45.16   1
  -4  -9   4   33.42   11.06   1
  -4  -9  -4   29.31   11.56   1
   4   9   4   24.74    9.05   1
   4  10   4    9.20    8.88   1
  -4 -10   4    4.10    5.69   1
  -4 -10  -4   20.25    9.67   1
  -4 -11   4  180.37   27.11   1
  -4 -12   4  199.36   30.29   1
  -4 -13   4  614.64   55.69   1
   4   3  -5 2456.53   56.95   1
  -4  -3  -5 2688.44   96.69   1
  -4  -3   5 2539.48   53.41   1
   4   3   5 2737.03   97.39   1
   4   4  -5 5776.50  124.63   1
  -4  -4  -5 5952.89  157.52   1
  -4  -4   5 5882.98  111.23   1
   4   4   5 6030.15  159.80   1
  -4  -5  -5   -1.90    4.73   1
   4   5   5   -2.58    3.01   1
  -4  -5   5    7.41    3.25   1
   4   6   5  843.01   57.24   1
  -4  -6   5  844.22   40.23   1
  -4  -6  -5  842.67   55.24   1
   4   7   5  420.04   41.22   1
  -4  -7   5  401.65   30.14   1
  -4  -7  -5  426.08   40.89   1
   4   8   5 1712.65   92.14   1
  -4  -8   5 1719.96   70.93   1
  -4  -8  -5 1791.76   91.19   1
   4   9   5  174.85   29.70   1
  -4  -9  -5  174.79   27.85   1
  -4  -9   5  178.15   22.74   1
  -4 -10   5    2.17    3.50   1
  -4 -11   5  613.95   48.58   1
  -4 -12   5 1962.72   95.56   1
   4  -1  -6 3551.15   76.37   1
   4  -2  -6  505.01   26.78   1
  -4  -3  -6  459.08   31.48   1
   4   3   6  546.62   42.90   1
  -4  -4  -6  843.27   54.39   1
   4   4   6  826.35   54.82   1
  -4  -4   6  854.43   28.57   1
   4   5   6 1723.34   82.71   1
  -4  -5   6 1675.92   50.56   1
  -4  -5  -6 1755.38   81.64   1
   4   6   6 1050.58   66.90   1
  -4  -6   6 1017.64   43.25   1
  -4  -6  -6 1110.76   65.84   1
   4   7   6 1591.64   85.71   1
  -4  -7   6 1595.04   61.48   1
  -4  -7  -6 1668.22   86.05   1
   4   8   6 1527.04   89.18   1
  -4  -8   6 1577.94   64.67   1
  -4  -8  -6 1574.95   86.86   1
   4   9   6 6356.02  197.89   1
  -4  -9   6 6179.19  157.18   1
  -4  -9  -6 5988.32  193.82   1
  -4 -10   6 1679.42   76.90   1
  -4 -11   6 7823.84  202.12   1
   4  -1  -7    4.55    1.98   1
   4  -2  -7  126.93   12.58   1
   4   3   7  271.74   32.51   1
   4  -3  -7  242.34   21.00   1
  -4  -4  -7 1322.22   70.21   1
   4  -4  -7 1286.53   56.62   1
   4   4   7 1395.97   73.49   1
  -4  -4   7 1194.16   31.95   1
   4   5   7  544.14   47.26   1
  -4  -5   7  523.51   24.39   1
  -4  -5  -7  533.66   46.13   1
   4  -5  -7  465.18   36.54   1
   4   6   7  983.99   66.13   1
  -4  -6   7  967.47   40.59   1
  -4  -6  -7  954.62   62.59   1
   4   7   7    4.62    9.49   1
  -4  -7  -7   -5.85    4.59   1
  -4  -7   7    8.40    5.26   1
  -4  -8  -7  300.20   38.88   1
   4   8   7  296.55   39.33   1
  -4  -8   7  285.42   26.28   1
  -4  -9   7  200.72   23.54   1
  -4 -10   7 1892.34   80.95   1
   4  -1  -8 1561.71   41.54   1
   4  -2  -8 1670.91   50.79   1
   4  -3  -8 5882.07  130.79   1
   4  -4  -8  683.00   39.01   1
  -4  -4  -8  817.00   56.93   1
   4   4   8  764.88   56.06   1
  -4  -5   8    2.89    2.79   1
  -4  -5  -8   -1.70    5.58   1
   4   5   8    2.38    4.52   1
   4  -5  -8    4.64    5.05   1
   4  -6  -8   85.10   17.47   1
  -4  -6  -8  175.74   29.79   1
  -4  -6   8   89.88   10.77   1
   4   6   8  143.45   26.63   1
   4   7   8 3381.85  134.71   1
  -4  -7   8 3131.97   86.58   1
   4  -7  -8 2957.94  112.31   1
  -4  -7  -8 3316.12  128.63   1
  -4  -8  -8  479.34   49.42   1
  -4  -8   8  505.32   33.41   1
  -4  -9   8   59.29   13.44   1
   4  -1  -9 2583.38   58.18   1
   4  -2  -9 1058.84   38.95   1
   4  -3  -9  444.89   27.84   1
   4  -4  -9 1588.39   61.07   1
   4   4   9 1468.12   81.28   1
  -4  -5  -9  343.84   39.26   1
   4  -5  -9  420.70   34.32   1
   4   5   9  419.91   43.68   1
  -4  -6  -9   79.44   20.39   1
   4  -6  -9   63.69   15.41   1
  -4  -6   9   71.79    9.66   1
   4   6   9   73.57   19.53   1
   4   7   9   35.87   13.24   1
  -4  -7  -9   54.99   19.09   1
   4  -7  -9   26.15    9.72   1
  -4  -7   9   27.54    6.59   1
   4  -8  -9   35.37   13.29   1
  -4  -8   9   33.68    8.49   1
   4  -1 -10 1648.61   44.56   1
   4  -2 -10  229.84   17.21   1
   4  -3 -10 2187.89   67.52   1
   4   4  10   37.67   13.18   1
   4  -4 -10   40.58    9.15   1
   4  -5 -10   -0.10    4.16   1
  -4  -5 -10    4.39    8.30   1
  -4  -5  10    0.93    1.47   1
   4   5  10    4.96    9.40   1
  -4  -6 -10   66.46   20.07   1
   4  -6 -10   84.39   16.77   1
   4   6  10   88.72   21.53   1
   4  -7 -10 1093.95   65.25   1
   4  -8 -10   73.09   18.03   1
   4  -9 -10  133.23   26.96   1
   4   4  11 2984.92  127.19   1
   4   5  11   43.26   13.65   1
   4  -7 -11   90.04   16.22   1
   4  -8 -11  731.00   56.12   1
   4  -9 -11  145.11   25.88   1
  -5  -3   0    3.05    3.97   1
   5   3   0    2.71    4.36   1
   5   4   0 2230.25   78.12   1
  -5  -4   0 2181.72   77.11   1
   5   5   0 3943.05  113.04   1
  -5  -5   0 3803.50  110.39   1
   5   6   0 1284.29   61.98   1
  -5  -6   0 1263.08   61.86   1
   5   7   0 1727.22   77.88   1
  -5  -7   0 1819.60   78.01   1
  -5  -8   019011.10  367.40   1
   5   8   018840.00  369.12   1
  -5  -9   0 2134.58   95.09   1
   5   9   0 2145.86   95.60   1
  -5 -10   0 3806.52  137.33   1
   5  10   0 3666.12  141.66   1
  -5 -11   0   23.22   10.24   1
   5  11   0   14.28   11.04   1
  -5  -3  -1  431.38   33.11   1
   5   3   1  403.29   31.71   1
   5   3  -1  461.53   30.54   1
  -5  -3   1  478.05   31.26   1
   5   4  -1  819.23   43.37   1
  -5  -4  -1  787.36   46.22   1
  -5  -4   1  821.21   42.04   1
   5   4   1  759.01   45.95   1
   5   5   1 1773.70   74.92   1
   5   5  -1 1828.08   69.86   1
  -5  -5  -1 1750.95   72.79   1
  -5  -5   1 1911.13   70.39   1
   5   6   1  840.48   52.14   1
   5   6  -1  875.92   49.39   1
  -5  -6  -1  848.08   50.89   1
  -5  -6   1  822.48   47.15   1
  -5  -7   1 1507.62   69.40   1
   5   7   1 1396.51   73.82   1
   5   7  -1 1527.89   68.76   1
  -5  -7  -1 1446.69   72.37   1
  -5  -8  -1 3812.57  129.56   1
  -5  -8   1 3929.16  124.55   1
   5   8   1 3851.46  130.46   1
   5   8  -1 3971.86  126.63   1
   5   9   1  177.40   26.52   1
  -5  -9  -1  188.13   27.23   1
   5   9  -1  204.76   29.04   1
  -5  -9   1  195.86   26.68   1
   5  10   1  315.69   37.14   1
  -5 -10  -1  339.35   38.71   1
  -5 -10   1  320.03   35.36   1
   5  10  -1  300.06   35.71   1
  -5 -11   1  436.43   44.60   1
   5  11  -1  438.01   44.68   1
   5  11   1  472.99   51.23   1
  -5 -11  -1  442.65   46.26   1
   5  12  -1 1089.87   79.67   1
  -5 -12   1 1191.88   78.91   1
   5   2  -2 2281.89   65.80   1
   5   3   2 3625.03  107.76   1
   5   3  -2 3748.09   92.83   1
   5   4  -2 5105.03  119.54   1
  -5  -4  -2 5013.56  136.01   1
  -5  -4   2 5055.04  118.21   1
   5   4   2 4885.90  136.43   1
   5   5   2 2876.47  101.35   1
   5   5  -2 2847.50   86.80   1
  -5  -5  -2 2834.96   97.55   1
  -5  -5   2 2903.73   86.45   1
   5   6   2 1373.64   69.52   1
   5   6  -2 1355.26   59.78   1
  -5  -6  -2 1403.42   70.50   1
  -5  -6   2 1378.53   59.48   1
  -5  -7   2  841.81   49.13   1
   5   7   2  881.17   57.36   1
   5   7  -2  893.61   50.66   1
  -5  -7  -2  911.85   57.50   1
  -5  -8   2  957.71   55.97   1
   5   8   2  930.80   62.79   1
   5   8  -2 1011.21   58.97   1
  -5  -8  -2 1008.21   62.86   1
  -5  -9  -2 5983.69  178.62   1
  -5  -9   2 5969.55  165.51   1
   5   9   2 5784.17  177.66   1
   5   9  -2 5917.27  169.17   1
  -5 -10  -2  651.18   54.98   1
  -5 -10   2  646.80   50.16   1
   5  10   2  668.97   56.53   1
   5  10  -2  663.24   51.43   1
   5  11  -2 1506.60   86.85   1
  -5 -11   2 1473.07   82.74   1
  -5 -12   2  150.82   26.37   1
   5  12  -2  132.57   29.18   1
   5   2  -3 5040.23  103.96   1
   5   3  -318578.20  302.20   1
   5   3   318044.70  340.95   1
   5   4  -3 3909.34   97.06   1
  -5  -4  -3 3981.63  120.38   1
  -5  -4   3 4050.54   96.77   1
   5   4   3 4044.85  123.71   1
  -5  -5  -3  130.79   21.82   1
  -5  -5   3  164.76   17.82   1
   5   5  -3  148.97   16.63   1
   5   5   3  160.03   25.15   1
   5   6   3  954.89   59.98   1
   5   6  -3 1003.12   48.78   1
  -5  -6  -3  961.24   57.55   1
  -5  -6   3  962.71   46.93   1
  -5  -7   3 3699.71  108.84   1
   5   7   3 3617.92  128.70   1
   5   7  -3 3675.76  112.93   1
  -5  -7  -3 3676.19  127.69   1
  -5  -8   3  483.76   37.55   1
   5   8   3  492.83   46.73   1
   5   8  -3  467.83   37.64   1
  -5  -8  -3  470.44   44.01   1
   5   9  -3 4355.15  137.03   1
  -5  -9   3 4387.20  133.75   1
   5   9   3 4167.16  150.52   1
  -5  -9  -3 4364.61  152.50   1
  -5 -10   3  263.00   30.91   1
   5  10   3  280.03   36.08   1
   5  10  -3  286.48   35.69   1
  -5 -10  -3  286.01   38.96   1
  -5 -11   3   39.48   11.31   1
   5  11  -3   33.49   10.81   1
   5  12  -3 1551.61  104.79   1
  -5 -12   3 1664.26   89.09   1
   5   2  -4  553.88   24.10   1
   5   3  -4  374.26   20.86   1
   5   4  -4 2786.37   71.98   1
  -5  -4   4 2771.37   71.40   1
   5   4   4 2664.52  100.62   1
   5   5   4  914.66   58.73   1
   5   5  -4  969.93   42.81   1
  -5  -5  -4  902.63   57.14   1
  -5  -5   4  967.24   41.57   1
  -5  -6   4 1001.25   46.66   1
   5   6   4  939.93   62.11   1
  -5  -6  -4 1003.96   61.51   1
   5   6  -4 1049.49   49.67   1
  -5  -7   4  450.19   32.42   1
   5   7   4  431.36   43.81   1
  -5  -7  -4  436.07   42.50   1
   5   7  -4  484.29   34.46   1
   5   8   4   63.88   18.10   1
  -5  -8  -4   32.36   11.80   1
   5   8  -4   63.84   14.43   1
  -5  -8   4   45.24   11.16   1
   5   9  -4 2175.28   96.35   1
  -5  -9   4 2046.45   84.41   1
   5   9   4 2063.58  104.52   1
  -5  -9  -4 2006.91  101.62   1
   5  10  -4    1.05    6.91   1
  -5 -10   4   12.86    8.09   1
  -5 -11   4 1369.28   75.23   1
  -5 -12   4   29.90   12.09   1
  -5 -13   4  333.90   41.03   1
   5   2  -5 9898.68  161.19   1
   5   3  -5 2163.71   52.84   1
  -5  -4  -5  489.92   41.58   1
  -5  -4   5  528.43   25.20   1
   5   4  -5  537.11   26.70   1
   5   4   5  520.31   45.08   1
   5   5   5 1655.37   84.04   1
  -5  -5  -5 1682.45   82.54   1
  -5  -5   5 1757.49   55.39   1
   5   5  -5 1758.58   56.24   1
  -5  -6   5  806.68   40.11   1
   5   6  -5  827.47   43.85   1
   5   6   5  814.24   59.65   1
  -5  -6  -5  848.77   58.37   1
   5   7  -5 2634.88   93.60   1
  -5  -7   5 2685.35   84.24   1
   5   7   5 2590.45  113.17   1
  -5  -7  -5 2867.01  115.89   1
   5   8  -5 6281.69  181.26   1
  -5  -8   5 6890.09  160.86   1
   5   8   5 6756.52  200.65   1
  -5  -8  -5 6536.94  195.08   1
  -5  -9   5 2053.07   83.31   1
   5   9   5 2205.01  111.04   1
  -5  -9  -5 2182.46  108.02   1
  -5 -10   5  839.83   53.80   1
  -5 -11   5  187.04   26.55   1
  -5 -12   5 2453.40  107.31   1
  -5 -13   5 1009.15   70.60   1
   5   3  -6   49.02    6.19   1
   5   4  -6 1581.04   52.09   1
  -5  -4  -6 1827.33   85.43   1
  -5  -4   6 1686.23   44.60   1
   5   4   6 1776.06   87.37   1
   5   5   6 3548.67  131.91   1
  -5  -5  -6 3670.61  128.50   1
  -5  -5   6 3786.81   84.70   1
  -5  -6   6  899.92   38.90   1
   5   6   6  830.93   62.33   1
  -5  -6  -6  861.81   60.40   1
  -5  -7   6 1009.43   46.04   1
   5   7   6  910.47   66.55   1
  -5  -7  -6  914.51   63.67   1
  -5  -8   6 9978.71  206.43   1
   5   8   6 9991.05  265.32   1
  -5  -8  -610103.20  258.22   1
  -5  -9   6  593.79   40.98   1
  -5 -10   6 1927.80   82.04   1
  -5 -11   6   35.75   11.30   1
  -5 -12   6 3523.64  131.54   1
  -5 -13   6  552.09   52.70   1
   5  -1  -7  182.89   13.82   1
   5   4   7  528.58   47.69   1
   5   5   7  779.73   60.43   1
  -5  -5  -7  754.98   58.19   1
  -5  -5   7  876.69   31.37   1
  -5  -6  -7  217.13   31.07   1
  -5  -6   7  195.59   16.01   1
   5   6   7  204.15   30.36   1
   5   7   7   78.69   20.05   1
  -5  -7  -7   58.18   16.49   1
  -5  -8   7  374.96   28.27   1
  -5  -9   7  864.89   47.54   1
  -5 -10   7   12.09    6.75   1
  -5 -11   7  435.97   39.33   1
  -5 -12   7   12.59    6.51   1
   5  -1  -8 3789.43   77.61   1
   5  -2  -8 2711.30   69.43   1
   5  -3  -8 2843.78   80.83   1
   5  -4  -8 3144.59   96.66   1
   5   4   8 3462.79  131.39   1
   5   5   8 1553.90   86.74   1
  -5  -5  -8 1620.65   86.17   1
  -5  -5   8 1336.61   35.63   1
  -5  -6   8  985.73   35.92   1
   5   6   8  960.64   69.72   1
  -5  -6  -8  973.99   68.99   1
  -5  -7   8  553.48   31.01   1
  -5  -7  -8  474.88   50.26   1
  -5  -8   8 1034.34   47.52   1
  -5  -9   8 3854.98  110.45   1
  -5 -10   8  572.49   42.38   1
   5  -1  -9 3790.17   74.61   1
   5  -2  -9  142.07   13.19   1
   5  -3  -9 3995.22   99.71   1
   5  -4  -9 1746.98   64.39   1
  -5  -5  -9  116.96   24.43   1
   5   5   9  116.02   24.07   1
   5  -5  -9  126.39   18.75   1
   5  -6  -9  798.23   51.02   1
  -5  -6  -9  790.47   64.51   1
  -5  -6   9  865.15   30.60   1
   5  -3 -10    0.07    3.22   1
   5  -4 -10  379.31   29.16   1
   5  -5 -10  147.04   20.77   1
   5  -6 -10  210.31   25.84   1
   5  -7 -10   93.31   19.49   1
   6   3   024018.40  411.56   1
  -6  -4   0 8001.74  180.23   1
   6   4   0 7887.03  181.59   1
   6   5   0 3693.51  113.44   1
  -6  -5   0 3426.38  110.48   1
   6   6   0   89.16   17.11   1
  -6  -6   0   83.76   16.28   1
   6   7   013620.30  287.11   1
  -6  -7   013790.70  285.93   1
   6   8   0  869.03   58.35   1
  -6  -8   0  922.94   59.91   1
   6   9   0 1152.61   71.14   1
  -6  -9   0 1174.09   69.62   1
  -6 -10   0  925.48   66.96   1
   6  10   0 1054.75   71.53   1
   6  11   0    6.16    8.73   1
  -6 -11   0   -5.30    5.27   1
   6   3  -1  481.14   33.18   1
  -6  -4   1 1217.12   55.84   1
  -6  -4  -1 1198.53   62.23   1
   6   4   1 1264.29   63.58   1
   6   4  -1 1176.71   55.34   1
  -6  -5  -1  201.51   24.45   1
  -6  -5   1  167.25   21.32   1
   6   5   1  182.83   23.95   1
   6   5  -1  172.22   21.19   1
   6   6   1 2260.24   94.20   1
   6   6  -1 2393.28   89.41   1
  -6  -6  -1 2352.82   93.16   1
  -6  -6   1 2321.98   86.42   1
   6   7   1  640.31   49.78   1
   6   7  -1  656.31   46.27   1
  -6  -7  -1  634.36   48.39   1
  -6  -7   1  650.15   45.83   1
  -6  -8  -1  185.04   26.65   1
   6   8   1  180.98   27.29   1
  -6  -8   1  166.82   23.26   1
   6   8  -1  180.18   24.91   1
   6   9  -1   11.66    6.62   1
  -6  -9  -1   14.32    9.88   1
  -6  -9   1   10.78    8.41   1
   6   9   1   21.29    9.67   1
  -6 -10   1 7507.73  201.79   1
   6  10   1 6990.48  208.73   1
   6  10  -1 7616.84  209.77   1
  -6 -10  -1 7192.47  208.83   1
  -6 -11   1  262.58   35.42   1
   6  11  -1  252.22   35.30   1
   6   3  -2  714.87   38.98   1
   6   4  -2 2333.76   77.26   1
  -6  -4  -2 2392.73   93.26   1
  -6  -4   2 2460.78   78.09   1
   6   4   2 2270.07   92.23   1
   6   5  -2  113.13   16.64   1
  -6  -5  -2   85.24   17.75   1
  -6  -5   2   92.60   14.57   1
   6   5   2   86.61   17.57   1
   6   6   2  856.69   57.66   1
   6   6  -2  917.72   51.36   1
  -6  -6  -2  932.03   58.78   1
  -6  -6   2  887.26   48.51   1
   6   7   2  812.43   57.72   1
   6   7  -2  863.32   50.63   1
  -6  -7  -2  806.07   55.79   1
  -6  -7   2  832.09   50.50   1
   6   8   2  844.31   61.15   1
   6   8  -2  879.50   54.53   1
  -6  -8  -2  841.23   59.42   1
  -6  -8   2  927.71   54.78   1
  -6  -9   2 3395.81  118.79   1
   6   9   2 3258.51  133.02   1
   6   9  -2 3366.56  121.93   1
  -6  -9  -2 3399.65  131.92   1
  -6 -10  -2  244.50   33.83   1
  -6 -10   2  242.61   30.17   1
   6  10  -2  234.80   33.51   1
   6  10   2  233.54   34.42   1
  -6 -11   2 2436.58  107.49   1
   6  11  -2 2480.88  109.62   1
   6  12  -2   93.61   20.25   1
  -6 -12   2   93.53   21.62   1
   6   3  -3  180.45   17.60   1
   6   4  -312993.60  240.09   1
  -6  -4   313141.10  242.63   1
   6   4   312783.50  277.17   1
   6   5  -3  234.24   22.45   1
  -6  -5  -3  220.04   29.67   1
  -6  -5   3  224.21   22.67   1
   6   5   3  199.80   28.09   1
   6   6   3 6678.51  187.53   1
   6   6  -3 6762.49  158.53   1
  -6  -6  -3 6960.50  185.55   1
  -6  -6   3 6881.28  156.58   1
   6   7   3 2420.15  105.60   1
   6   7  -3 2365.42   86.32   1
  -6  -7  -3 2308.36  100.76   1
  -6  -7   3 2454.76   87.30   1
   6   8   3 3643.68  137.18   1
   6   8  -3 3707.33  119.93   1
  -6  -8  -3 3694.09  135.32   1
  -6  -8   3 3666.41  116.02   1
  -6  -9  -3  127.14   23.63   1
   6   9   3  134.09   26.02   1
  -6  -9   3  152.96   21.73   1
   6   9  -3  141.41   21.20   1
   6  10  -3   72.42   16.90   1
  -6 -10   3   61.29   14.33   1
   6  11  -3 1854.70   95.36   1
  -6 -11   3 1796.53   90.18   1
   6  12  -3 1880.58  106.85   1
  -6 -12   3 1953.11   98.45   1
   6   2  -4  171.13   15.30   1
   6   3  -4 4072.45   94.87   1
   6   4  -4  317.03   23.17   1
   6   4   4  317.86   36.73   1
  -6  -5  -4  -14.42   10.39   1
  -6  -5   4    3.82    4.86   1
   6   5  -4   -4.89    5.13   1
   6   5   4    8.79    8.89   1
   6   6  -4   96.07   14.73   1
  -6  -6  -4   93.93   19.78   1
  -6  -6   4  103.86   15.45   1
   6   6   4   87.87   19.75   1
   6   7   4 2368.39  107.91   1
  -6  -7  -4 2340.54  104.99   1
   6   7  -4 2335.20   84.63   1
  -6  -7   4 2520.35   84.67   1
   6   8   4   42.92   17.25   1
  -6  -8  -4   57.55   18.92   1
  -6  -8   4   31.30    8.75   1
   6   8  -4   34.79    9.81   1
   6   9  -4 1581.78   74.61   1
  -6  -9   4 1561.50   72.48   1
  -6  -9  -4 1447.13   87.86   1
   6  10  -4   67.79   17.33   1
  -6 -10   4   61.65   14.77   1
   6  11  -4 1494.23   88.75   1
  -6 -11   4 1438.12   78.05   1
   6  12  -4   33.80   16.47   1
  -6 -12   4   26.81   12.93   1
   6   2  -5 1571.19   45.60   1
   6   3  -5 2152.42   57.83   1
   6   4  -5   52.84    8.82   1
   6   5  -5  610.50   32.57   1
  -6  -5  -5  607.33   51.42   1
  -6  -5   5  565.12   31.35   1
   6   5   5  568.22   51.33   1
   6   6   5 1475.53   85.18   1
  -6  -6  -5 1450.97   81.38   1
  -6  -6   5 1451.13   55.63   1
   6   6  -5 1509.01   59.86   1
   6   7   5 1460.56   87.02   1
  -6  -7  -5 1562.77   87.75   1
  -6  -7   5 1604.62   64.03   1
   6   7  -5 1628.25   64.97   1
   6   8   5  130.04   27.41   1
  -6  -8   5  102.60   16.99   1
   6   8  -5  120.53   18.36   1
   6   9  -5   12.87    8.60   1
  -6  -9   5   11.78    5.83   1
  -6 -10   5 8229.82  201.31   1
   6  10  -5 8161.29  237.07   1
  -6 -11   5  453.96   40.98   1
  -6 -12   5  649.60   52.24   1
  -6 -13   5  792.23   62.23   1
   6   2  -6  168.92   11.59   1
   6   3  -610585.00  175.57   1
   6   4  -6 2583.94   65.46   1
  -6  -5  -6 1819.96   91.00   1
  -6  -5   6 1725.94   54.14   1
   6   5  -6 1802.85   55.81   1
   6   5   6 1728.81   91.69   1
  -6  -6  -6  137.41   25.43   1
  -6  -6   6  147.70   15.82   1
   6   6   6  125.94   25.46   1
   6   6  -6  142.59   17.10   1
   6   7  -6 7615.63  182.39   1
   6   7   6 8117.64  231.31   1
  -6  -7  -6 7762.47  221.86   1
  -6  -7   6 8148.75  169.24   1
  -6  -8   6  266.67   25.39   1
  -6  -9   6  490.16   37.81   1
  -6 -10   6 1044.43   59.62   1
  -6 -11   6   13.98    9.57   1
  -6 -12   6   29.03    8.36   1
  -6 -13   6 5374.20  171.87   1
  -6  -5  -7  -17.48   11.98   1
   6   5   7    2.28    7.65   1
   6   6   7 2004.60  106.62   1
  -6  -6   7 2141.06   60.02   1
  -6  -7   7   26.52    6.58   1
  -6  -8   7 1353.11   57.03   1
  -6  -9   7   80.54   14.32   1
  -6 -10   7 4029.40  121.73   1
   6  -1  -8 6137.97  117.84   1
   6   5   8   69.94   21.21   1
  -6  -6   8  922.34   34.15   1
  -6  -7   8  330.39   22.57   1
   6  -2  -9 3997.23   90.20   1
   6  -3  -9   96.54   13.27   1
   6  -4  -9 3393.97   99.09   1
   7   4   0 3120.20  106.57   1
   7   5   0  646.51   47.00   1
  -7  -5   0  694.30   47.68   1
   7   6   0 4073.18  132.21   1
  -7  -6   0 4089.14  128.96   1
   7   7   0 3260.13  120.61   1
  -7  -7   0 3499.90  120.75   1
   7   8   0 4300.44  148.51   1
  -7  -8   0 4439.51  142.92   1
  -7  -9   0  204.37   30.95   1
   7   9   0  194.37   28.88   1
   7  10   0  408.41   43.98   1
  -7 -10   0  408.48   43.56   1
   7   4   1  858.99   55.98   1
   7   4  -1  844.07   50.21   1
   7   5  -1 3923.40  120.51   1
  -7  -5  -1 4192.07  131.34   1
  -7  -5   1 4128.62  121.61   1
   7   5   1 3936.78  130.42   1
  -7  -6  -1  186.07   27.40   1
  -7  -6   1  189.63   24.47   1
   7   6   1  190.69   27.84   1
   7   6  -1  245.32   28.95   1
   7   7   1  772.14   56.84   1
   7   7  -1  815.47   54.51   1
  -7  -7  -1  759.01   55.64   1
  -7  -7   1  823.36   53.02   1
   7   8   1 1044.45   69.20   1
   7   8  -1 1017.95   65.20   1
  -7  -8  -1 1034.89   65.60   1
  -7  -8   1 1046.87   63.22   1
  -7  -9  -1   57.13   17.65   1
  -7  -9   1   55.67   15.96   1
   7   9   1   47.62   16.09   1
   7   9  -1   65.94   19.95   1
   7  10  -1  210.86   39.10   1
  -7 -10  -1   65.00   17.54   1
  -7 -10   1  213.30   52.53   1
   7  11  -1   91.37   20.67   1
  -7 -11   1   76.42   15.97   1
   7   3  -2  309.03   28.11   1
   7   4  -2 2996.76   95.61   1
   7   5  -2 2428.86   86.15   1
  -7  -5  -2 2567.40  103.20   1
  -7  -5   2 2456.75   87.02   1
   7   5   2 2342.01  100.86   1
   7   6   2 3789.00  134.60   1
   7   6  -2 3717.81  115.47   1
  -7  -6  -2 3802.89  131.29   1
  -7  -6   2 3664.91  113.60   1
  -7  -7  -2    7.57    6.43   1
  -7  -7   2   16.38    7.56   1
   7   7  -2   21.55    9.04   1
   7   7   2   25.04   10.43   1
   7   8   2  106.70   21.88   1
  -7  -8  -2  108.78   21.42   1
  -7  -8   2  100.95   18.68   1
   7   8  -2   89.88   16.67   1
   7   9   2 2289.12  114.53   1
   7   9  -2 2268.97   98.25   1
  -7  -9  -2 2300.64  108.29   1
  -7  -9   2 2371.30   98.98   1
   7  10  -2   49.78   15.65   1
  -7 -10   2  116.66   26.85   1
  -7 -11   2  511.84   48.33   1
   7  11  -2  484.95   50.19   1
   7   3  -3 4043.82  106.58   1
   7   4  -3  572.28   36.45   1
   7   5  -3 2946.74   92.73   1
  -7  -5   3 2995.90   94.72   1
  -7  -5  -3 3154.53  119.84   1
   7   5   3 2851.94  116.11   1
   7   6   3 1709.51   88.40   1
   7   6  -3 1809.49   72.90   1
  -7  -6  -3 1789.47   88.50   1
  -7  -6   3 1748.58   71.39   1
   7   7   3 4568.77  158.07   1
   7   7  -3 4777.50  134.07   1
  -7  -7  -3 4611.01  156.34   1
  -7  -7   3 4553.78  130.04   1
   7   8  -3   70.68   14.91   1
   7   8   3   88.31   20.51   1
  -7  -8  -3   88.76   21.86   1
  -7  -8   3   72.72   15.31   1
   7   9  -3 4869.95  149.88   1
  -7  -9   3 4933.97  146.85   1
  -7 -10   3   13.55    6.74   1
   7  10  -3   30.16   12.36   1
   7  11  -3  258.03   32.90   1
  -7 -11   3  277.70   34.71   1
   7  12  -3   19.44   10.97   1
  -7 -12   3   11.09   11.18   1
   7   3  -4  301.21   23.57   1
   7   4  -4  844.45   41.14   1
   7   5  -4 1145.14   51.09   1
   7   5   4 1198.67   75.37   1
   7   6   4 1210.53   78.06   1
   7   6  -4 1324.84   59.36   1
  -7  -6  -4 1078.82   72.44   1
  -7  -6   4 1241.26   57.03   1
   7   7  -4    8.26    4.94   1
  -7  -7  -4    6.63    9.85   1
  -7  -7   4    3.16    3.06   1
   7   7   4   14.98   12.12   1
   7   8   4  231.71   35.88   1
  -7  -8  -4  253.86   36.92   1
  -7  -8   4  240.57   26.88   1
   7   8  -4  267.39   28.45   1
   7   9  -4 1362.69   72.29   1
  -7  -9   4 1399.33   69.81   1
   7  10  -4   26.60   12.51   1
  -7 -10   4    6.37    5.17   1
  -7 -11   4  278.58   32.80   1
   7  11  -4  277.17   34.22   1
  -7 -12   4  761.76   58.39   1
   7  12  -4  750.51   64.36   1
   7   2  -5 3131.13   77.52   1
   7   3  -5  925.46   38.93   1
   7   4  -5  441.36   27.02   1
   7   5  -5 5242.97  122.85   1
   7   6   5  675.83   59.41   1
   7   6  -5  656.70   38.23   1
  -7  -6  -5  716.07   58.92   1
  -7  -6   5  703.53   39.31   1
   7   7   5 1787.48  100.38   1
  -7  -7  -5 1776.57   97.23   1
  -7  -7   5 1797.94   68.49   1
   7   7  -5 1713.19   70.96   1
  -7  -8   5  934.25   51.20   1
   7   8  -5  929.79   52.40   1
   7   9  -5  256.13   28.88   1
  -7  -9   5  251.15   28.26   1
   7  10  -5    7.79   11.85   1
  -7 -10   5   -8.40    7.14   1
  -7 -11   5  144.78   24.42   1
   7  11  -5  111.44   22.90   1
  -7 -12   5  797.76   58.16   1
  -7 -13   5   60.34   19.03   1
   7   2  -6 4663.72   96.14   1
   7   3  -6 1116.26   38.97   1
   7   4  -6 1334.34   46.35   1
   7   5  -6  750.49   35.66   1
   7   6   6 2170.56  112.67   1
  -7  -6  -6 2197.47  108.72   1
  -7  -6   6 2199.80   68.89   1
   7   6  -6 2146.19   72.74   1
  -7  -7   6 2366.68   76.88   1
   7   7  -6 2400.64   79.39   1
   7   8  -6 2410.19   89.57   1
  -7  -8   6 2594.10   84.98   1
  -7  -9   6  290.11   27.98   1
  -7 -10   6  197.09   25.08   1
  -7 -11   6  576.32   45.45   1
   7   2  -7  538.48   21.42   1
   7   3  -7  138.38   10.91   1
   7   4  -7  482.57   24.52   1
  -7  -6   7   -5.59   11.65   1
  -7  -7   7    5.94    3.11   1
  -7  -8   7  543.89   34.82   1
   8   5   0  466.34   42.49   1
   8   6   0 1341.17   75.50   1
  -8  -6   0 1410.72   75.51   1
  -8  -7   0   27.36   12.43   1
   8   7   0   27.90   12.68   1
   8   8   0  356.65   40.20   1
  -8  -8   0  356.75   39.83   1
   8   9   0 1121.15   77.16   1
  -8  -9   0 1095.52   71.14   1
  -8 -10   0  359.87   41.52   1
   8   4  -1 4630.04  135.84   1
   8   5   1   57.28   16.40   1
   8   5  -1   60.90   15.58   1
   8   6   1  645.41   53.93   1
   8   6  -1  692.70   50.93   1
  -8  -6  -1  711.00   55.34   1
  -8  -6   1  718.74   51.72   1
   8   7   1 1620.71   89.66   1
   8   7  -1 1738.96   84.42   1
  -8  -7  -1 1734.47   87.89   1
  -8  -7   1 1637.78   80.71   1
   8   8   1 2190.83  107.82   1
   8   8  -1 2212.07  100.37   1
  -8  -8  -1 2250.81  105.24   1
  -8  -8   1 2293.72   99.39   1
  -8  -9  -1    5.81    6.53   1
  -8  -9   1   -3.40    5.37   1
   8   9   1   -5.32    9.54   1
   8   9  -1   -7.99    6.21   1
  -8 -10   1  354.32   40.22   1
   8  10  -1  340.38   41.09   1
   8   4  -2 2690.69   95.40   1
   8   5   2   21.77   10.18   1
   8   5  -2   27.11    8.58   1
   8   6   2  563.07   52.71   1
   8   6  -2  615.70   45.13   1
  -8  -6  -2  587.11   52.64   1
  -8  -6   2  640.23   46.15   1
   8   7   2 3678.52  142.81   1
   8   7  -2 3565.25  122.24   1
  -8  -7  -2 3730.64  139.33   1
  -8  -7   2 3579.48  119.52   1
   8   8   2  621.35   57.44   1
   8   8  -2  610.29   50.79   1
  -8  -8  -2  625.86   56.63   1
  -8  -8   2  633.16   48.56   1
  -8  -9   2    1.52    5.21   1
   8   9  -2   16.38   11.60   1
   8  10  -2  408.07   43.40   1
  -8 -10   2  447.28   43.92   1
  -8 -11   2   34.49   12.51   1
   8  11  -2   26.48   10.23   1
   8   4  -3 1307.67   60.01   1
   8   5  -3 2268.50   82.98   1
   8   6   3 1810.14   97.54   1
   8   6  -3 1749.49   76.36   1
  -8  -6   3 1822.27   77.79   1
  -8  -6  -3 1846.86   97.90   1
   8   7   3  582.41   56.99   1
   8   7  -3  587.59   44.64   1
  -8  -7  -3  510.02   51.59   1
  -8  -7   3  590.15   43.41   1
   8   8  -3 2466.38   96.93   1
  -8  -8   3 2429.47   96.78   1
   8   9  -3 1230.14   69.39   1
  -8  -9   3 1203.20   67.97   1
   8  10  -3 4410.66  150.23   1
  -8 -10   3 4480.69  146.70   1
  -8 -11   3   37.82   13.04   1
   8  11  -3   36.60   15.38   1
   8   3  -4 2967.44   88.21   1
   8   4  -4  173.81   19.74   1
   8   5  -4  176.01   20.73   1
   8   6  -4  112.31   17.09   1
   8   6   4  195.84   48.47   1
   8   7  -4 1236.31   61.43   1
  -8  -7   4 1153.34   59.71   1
   8   8  -4    1.77    3.46   1
  -8  -8   4    1.08    6.19   1
  -8  -9   4  309.20   33.19   1
   8   9  -4  309.09   33.19   1
  -8 -10   4   26.11   11.90   1
   8  10  -4   29.86   11.21   1
   8  11  -4   49.97   16.01   1
  -8 -11   4   33.20   10.55   1
  -8 -12   4  123.30   24.03   1
   8   3  -5 2753.84   79.56   1
   8   4  -5 5393.58  125.68   1
   8   5  -5   92.90   14.64   1
   8   6  -5 1441.23   61.04   1
   8   7  -5 3305.13  102.44   1
  -8  -7   5 2952.09   97.10   1
  -8  -8   5 2965.13  100.01   1
   8   8  -5 3077.47  105.05   1
  -8  -9   5    6.98    4.49   1
  -8 -10   5  308.73   33.51   1
  -8 -11   5 1500.97   77.86   1
   8   2  -6  650.12   31.23   1
   8   3  -6  369.44   23.61   1
   8   4  -6   48.90   14.74   1
   8   5  -6  466.26   29.49   1
  -8  -7   6   45.08   10.04   1
  -8  -8   6   51.50    9.35   1
  -8  -9   6  556.67   40.39   1
   9   6   0 1729.50   89.57   1
   9   7   0  998.52   71.01   1
  -9  -7   0 1140.00   74.47   1
   9   8   0  116.46   23.18   1
  -9  -8   0  104.27   21.89   1
   9   9   0  536.00   54.46   1
  -9  -9   0  706.04   60.10   1
   9   5  -1  495.52   44.44   1
   9   6   1  250.01   35.69   1
   9   6  -1  273.89   33.49   1
   9   7   1 1088.95   75.65   1
   9   7  -1 1126.72   71.89   1
  -9  -7   1 1227.02   73.17   1
  -9  -7  -1 1196.49   77.79   1
   9   8   1  342.90   44.91   1
   9   8  -1  351.68   40.06   1
  -9  -8  -1  306.50   38.90   1
  -9  -8   1  317.44   36.49   1
   9   9  -1 2089.89  105.77   1
  -9  -9   1 2107.11  101.92   1
   9   5  -2  862.71   54.87   1
   9   6   2  201.06   35.06   1
   9   6  -2  175.13   24.20   1
   9   7  -2  262.80   31.18   1
  -9  -7  -2  282.35   39.22   1
  -9  -7   2  248.40   30.68   1
   9   7   2  254.29   38.49   1
   9   8  -2 3943.44  138.25   1
  -9  -8   2 3884.87  134.79   1
  -9  -9   2   16.83    6.77   1
   9   9  -2   18.23    9.39   1
   9  10  -2  818.19   62.79   1
  -9 -10   2  812.10   63.03   1
   9   4  -3  193.56   25.11   1
   9   5  -3 5149.87  141.91   1
   9   6  -3   54.05   15.17   1
   9   7  -3 3719.39  123.57   1
   9   8  -3 2746.99  110.28   1
  -9  -8   3 2761.36  107.35   1
  -9  -9   3  203.48   28.95   1
   9   9  -3  239.34   31.43   1
   9  10  -3  511.98   47.30   1
  -9 -10   3  510.24   47.50   1
  -9 -11   3  173.59   27.77   1
   9  11  -3  141.18   30.74   1
   9   4  -4   20.88    8.05   1
   9   5  -4  862.55   48.68   1
   9   6  -4  614.71   42.44   1
   9   7  -4  132.16   22.67   1
   9   8  -4 1427.72   70.74   1
  -9  -8   4 1384.86   70.10   1
   9   9  -4  343.93   35.66   1
  -9  -9   4  367.43   37.62   1
  -9 -10   4  296.25   35.14   1
  -9 -11   4  394.21   40.12   1
   9   3  -5 2415.57   79.90   1
   9   4  -5 1253.09   55.23   1
   9   5  -5  258.87   26.04   1
   9   6  -5  230.66   24.92   1
  -9  -8   5   84.48   16.26   1
  -9  -9   5 3063.75  108.55   1
  10   6   0  270.01   40.64   1
  10   7   0   38.35   16.30   1
  10   6  -1    5.49    7.25   1
  10   7  -1  403.00   43.06   1
  10   8  -1    6.06    8.09   1
  10   6  -2  695.15   52.18   1
  10   7  -2  196.73   29.53   1
  10   8  -2   -2.61    6.99   1
 -10  -9   2  288.24   35.25   1
  10   9  -2  283.33   38.56   1
  10   5  -3    1.32    6.87   1
  10   6  -3  345.09   34.77   1
  10   7  -3  919.38   59.13   1
  10   8  -3    1.80    8.67   1
 -10  -9   3   16.69    8.52   1
  10   9  -3   -6.62    8.92   1
 -10 -10   3 4106.86  147.07   1
  10   5  -4   69.27   14.10   1
  10   6  -4  837.51   52.81   1
 -10  -9   4   33.95   14.49   1
  11   7  -1   20.67   12.73   1
  11   6  -2 2477.93  108.32   1
  11   7  -2  364.33   41.31   1
  11   8  -2  430.48   46.78   1
  11   6  -3  889.06   62.47   1
   0   0   0    0.00    0.00   0
;
_shelx_hkl_checksum              62416
loop_
_space_group_symop_operation_xyz
'x, y, z'
'-x, -y, z+1/2'
'-x+1/2, y+1/2, -z'
'x+1/2, -y+1/2, -z+1/2'
'-x, -y, -z'
'x, y, -z-1/2'
'x-1/2, -y-1/2, z'
'-x-1/2, y-1/2, z-1/2'
loop_
_atom_site_label
_atom_site_type_symbol
_atom_site_fract_x
_atom_site_fract_y
_atom_site_fract_z
_atom_site_U_iso_or_equiv
_atom_site_adp_type
_atom_site_occupancy
_atom_site_site_symmetry_order
_atom_site_calc_flag
_atom_site_refinement_flags_posn
_atom_site_refinement_flags_adp
_atom_site_refinement_flags_occupancy
Ca1 Ca 0.29419(6) 0.10190(4) 0.2500 0.00719(9) Uani 1 2 d S T P
Si1 Si 0.03614(5) 0.20673(4) -0.07259(4) 0.00489(10) Uani 1 1 d . . .
O1 O 0.24215(15) 0.11070(9) -0.06377(11) 0.00669(15) Uani 1 1 d . . .
O2 O 0.11319(15) 0.39013(9) -0.05885(10) 0.00566(15) Uani 1 1 d . . .
O3 O 0.41806(15) 0.35396(10) 0.09171(10) 0.00630(15) Uani 1 1 d . . .
O4 O 0.5693(2) 0.65715(14) 0.2500 0.00591(19) Uani 1 2 d S T P
O5 O 0.1327(2) 0.39500(13) 0.2500 0.0059(2) Uani 1 2 d S T P
B1 B 0.2286(2) 0.43902(14) 0.40961(13) 0.00560(19) Uani 1 1 d . . .
loop_
_atom_site_aniso_label
_atom_site_aniso_U_11
_atom_site_aniso_U_22
_atom_site_aniso_U_33
_atom_site_aniso_U_23
_atom_site_aniso_U_13
_atom_site_aniso_U_12
Ca1 0.01083(19) 0.00418(16) 0.00657(12) 0.000 0.000 0.00043(7)
Si1 0.0071(2) 0.00241(16) 0.00514(13) 0.00010(8) -0.00012(9) -0.00039(7)
O1 0.0089(5) 0.0022(3) 0.0090(3) -0.0003(2) -0.0005(3) 0.0007(2)
O2 0.0081(5) 0.0022(3) 0.0067(3) -0.00006(19) -0.0005(3) -0.00042(19)
O3 0.0076(4) 0.0051(3) 0.0062(3) -0.0005(2) 0.0006(3) 0.0015(2)
O4 0.0085(6) 0.0045(5) 0.0047(3) 0.000 0.000 0.0008(3)
O5 0.0080(7) 0.0046(5) 0.0052(3) 0.000 0.000 -0.0010(3)
B1 0.0080(6) 0.0033(5) 0.0054(3) 0.0000(3) -0.0001(4) 0.0000(3)
loop_
_atom_type_symbol
_atom_type_description
_atom_type_scat_dispersion_real
_atom_type_scat_dispersion_imag
_atom_type_scat_source
B B -0.0005 0.0001 'International Tables Vol C Tables 4.2.6.8 and 6.1.1.4'
O O -0.0010 0.0008 'International Tables Vol C Tables 4.2.6.8 and 6.1.1.4'
Si Si 0.0082 0.0108 'International Tables Vol C Tables 4.2.6.8 and 6.1.1.4'
Ca Ca 0.0424 0.0512 'International Tables Vol C Tables 4.2.6.8 and 6.1.1.4'
loop_
_geom_angle_atom_site_label_1
_geom_angle_atom_site_label_2
_geom_angle_atom_site_label_3
_geom_angle
_geom_angle_site_symmetry_1
_geom_angle_site_symmetry_3
O5 Ca1 O2 74.87(3) 7_665 3_545
O5 Ca1 O2 74.87(3) 7_665 8_656
O2 Ca1 O2 77.66(4) 3_545 8_656
O5 Ca1 O1 98.33(3) 7_665 6_556
O2 Ca1 O1 132.88(3) 3_545 6_556
O2 Ca1 O1 55.97(3) 8_656 6_556
O5 Ca1 O1 98.33(3) 7_665 .
O2 Ca1 O1 55.97(3) 3_545 .
O2 Ca1 O1 132.88(3) 8_656 .
O1 Ca1 O1 162.97(5) 6_556 .
O5 Ca1 O3 69.92(3) 7_665 6_556
O2 Ca1 O3 143.56(4) 3_545 6_556
O2 Ca1 O3 101.48(3) 8_656 6_556
O1 Ca1 O3 63.09(3) 6_556 6_556
O1 Ca1 O3 120.16(3) . 6_556
O5 Ca1 O3 69.92(3) 7_665 .
O2 Ca1 O3 101.48(3) 3_545 .
O2 Ca1 O3 143.56(4) 8_656 .
O1 Ca1 O3 120.16(3) 6_556 .
O1 Ca1 O3 63.09(3) . .
O3 Ca1 O3 57.74(4) 6_556 .
O5 Ca1 O4 126.77(4) 7_665 7_565
O2 Ca1 O4 64.42(3) 3_545 7_565
O2 Ca1 O4 64.42(3) 8_656 7_565
O1 Ca1 O4 86.44(2) 6_556 7_565
O1 Ca1 O4 86.44(2) . 7_565
O3 Ca1 O4 148.30(2) 6_556 7_565
O3 Ca1 O4 148.30(2) . 7_565
O5 Ca1 O5 114.24(4) 7_665 .
O2 Ca1 O5 140.94(2) 3_545 .
O2 Ca1 O5 140.94(2) 8_656 .
O1 Ca1 O5 84.98(2) 6_556 .
O1 Ca1 O5 84.98(2) . .
O3 Ca1 O5 53.58(3) 6_556 .
O3 Ca1 O5 53.58(3) . .
O4 Ca1 O5 119.00(4) 7_565 .
O5 Ca1 O3 153.464(19) 7_665 7_565
O2 Ca1 O3 93.75(3) 3_545 7_565
O2 Ca1 O3 126.83(3) 8_656 7_565
O1 Ca1 O3 106.71(3) 6_556 7_565
O1 Ca1 O3 56.29(3) . 7_565
O3 Ca1 O3 113.84(3) 6_556 7_565
O3 Ca1 O3 89.59(2) . 7_565
O4 Ca1 O3 64.69(3) 7_565 7_565
O5 Ca1 O3 60.65(3) . 7_565
O5 Ca1 O3 153.464(19) 7_665 4_455
O2 Ca1 O3 126.83(3) 3_545 4_455
O2 Ca1 O3 93.75(3) 8_656 4_455
O1 Ca1 O3 56.29(3) 6_556 4_455
O1 Ca1 O3 106.71(3) . 4_455
O3 Ca1 O3 89.59(2) 6_556 4_455
O3 Ca1 O3 113.84(3) . 4_455
O4 Ca1 O3 64.69(3) 7_565 4_455
O5 Ca1 O3 60.65(3) . 4_455
O3 Ca1 O3 50.42(3) 7_565 4_455
O5 Ca1 B1 93.31(3) 7_665 8_655
O2 Ca1 B1 29.15(3) 3_545 8_655
O2 Ca1 B1 104.18(3) 8_656 8_655
O1 Ca1 B1 152.56(3) 6_556 8_655
O1 Ca1 B1 28.76(3) . 8_655
O3 Ca1 B1 144.28(3) 6_556 8_655
O3 Ca1 B1 87.17(3) . 8_655
O4 Ca1 B1 66.80(3) 7_565 8_655
O5 Ca1 B1 112.66(3) . 8_655
O3 Ca1 B1 68.22(3) 7_565 8_655
O3 Ca1 B1 112.87(3) 4_455 8_655
O3 Si1 O2 114.15(4) 7_565 .
O3 Si1 O4 112.23(6) 7_565 3_545
O2 Si1 O4 116.37(5) . 3_545
O3 Si1 O1 105.13(5) 7_565 .
O2 Si1 O1 99.34(5) . .
O4 Si1 O1 107.94(6) 3_545 .
O3 Si1 Si1 143.29(3) 7_565 6
O2 Si1 Si1 93.84(3) . 6
O4 Si1 Si1 31.08(4) 3_545 6
O1 Si1 Si1 92.42(3) . 6
O3 Si1 Ca1 64.54(4) 7_565 .
O2 Si1 Ca1 90.87(3) . .
O4 Si1 Ca1 148.90(4) 3_545 .
O1 Si1 Ca1 49.47(3) . .
Si1 Si1 Ca1 141.816(8) 6 .
O3 Si1 Ca1 45.65(3) 7_565 7_565
O2 Si1 Ca1 71.31(3) . 7_565
O4 Si1 Ca1 121.88(5) 3_545 7_565
O1 Si1 Ca1 128.40(3) . 7_565
Si1 Si1 Ca1 137.651(7) 6 7_565
Ca1 Si1 Ca1 79.416(8) . 7_565
B1 O1 Si1 126.22(9) 8_655 .
B1 O1 Ca1 95.38(6) 8_655 .
Si1 O1 Ca1 100.54(4) . .
B1 O2 Si1 119.42(7) 6_556 .
B1 O2 Ca1 98.71(6) 6_556 3
Si1 O2 Ca1 137.33(4) . 3
B1 O3 Si1 126.24(7) 6_556 7_665
B1 O3 Ca1 95.12(7) 6_556 .
Si1 O3 Ca1 107.79(4) 7_665 .
B1 O3 Ca1 137.27(6) 6_556 7_665
Si1 O3 Ca1 85.60(4) 7_665 7_665
Ca1 O3 Ca1 101.26(3) . 7_665
Si1 O4 Si1 117.85(8) 3 8_666
Si1 O4 Ca1 117.98(4) 3 7_665
Si1 O4 Ca1 117.98(4) 8_666 7_665
B1 O5 B1 117.58(14) 6_556 .
B1 O5 Ca1 116.88(8) 6_556 7_565
B1 O5 Ca1 116.88(8) . 7_565
B1 O5 Ca1 91.95(7) 6_556 .
B1 O5 Ca1 91.95(7) . .
Ca1 O5 Ca1 115.48(5) 7_565 .
O1 B1 O5 115.50(9) 8_666 .
O1 B1 O2 103.28(8) 8_666 6_556
O5 B1 O2 111.33(11) . 6_556
O1 B1 O3 109.78(10) 8_666 6_556
O5 B1 O3 106.16(9) . 6_556
O2 B1 O3 110.85(9) 6_556 6_556
O1 B1 Ca1 55.86(5) 8_666 3_556
O5 B1 Ca1 148.24(9) . 3_556
O2 B1 Ca1 52.15(5) 6_556 3_556
O3 B1 Ca1 105.33(6) 6_556 3_556
O1 B1 Ca1 157.13(8) 8_666 .
O5 B1 Ca1 59.75(6) . .
O2 B1 Ca1 98.94(6) 6_556 .
O3 B1 Ca1 56.10(5) 6_556 .
Ca1 B1 Ca1 140.79(4) 3_556 .
O1 B1 Ca1 106.54(8) 8_666 7_565
O5 B1 Ca1 39.69(7) . 7_565
O2 B1 Ca1 77.01(7) 6_556 7_565
O3 B1 Ca1 139.41(7) 6_556 7_565
Ca1 B1 Ca1 109.74(4) 3_556 7_565
Ca1 B1 Ca1 83.58(3) . 7_565
loop_
_geom_bond_atom_site_label_1
_geom_bond_atom_site_label_2
_geom_bond_distance
_geom_bond_site_symmetry_2
Ca1 O5 2.3218(15) 7_665
Ca1 O2 2.3614(8) 3_545
Ca1 O2 2.3614(8) 8_656
Ca1 O1 2.4574(8) 6_556
Ca1 O1 2.4575(8) .
Ca1 O3 2.5392(9) 6_556
Ca1 O3 2.5392(9) .
Ca1 O4 2.6152(12) 7_565
Ca1 O5 2.6336(12) .
Ca1 O3 2.8786(11) 7_565
Ca1 O3 2.8786(11) 4_455
Ca1 B1 2.9562(11) 8_655
Si1 O3 1.5875(9) 7_565
Si1 O2 1.5894(8) .
Si1 O4 1.6044(7) 3_545
Si1 O1 1.6166(10) .
Si1 Si1 2.7483(6) 6
Si1 Ca1 3.3809(4) 7_565
O1 B1 1.4289(14) 8_655
O2 B1 1.4566(15) 6_556
O2 Ca1 2.3614(8) 3
O3 B1 1.4727(17) 6_556
O3 Si1 1.5875(9) 7_665
O3 Ca1 2.8785(11) 7_665
O4 Si1 1.6044(7) 3
O4 Si1 1.6044(7) 8_666
O4 Ca1 2.6152(12) 7_665
O5 B1 1.4454(14) 6_556
O5 B1 1.4455(14) .
O5 Ca1 2.3218(15) 7_565
B1 O1 1.4289(14) 8_666
B1 O2 1.4566(15) 6_556
B1 O3 1.4727(17) 6_556
B1 Ca1 2.9562(11) 3_556
B1 Ca1 3.2426(14) 7_565
