#------------------------------------------------------------------------------
#$Date: 2017-08-11 08:38:00 +0300 (Fri, 11 Aug 2017) $
#$Revision: 199718 $
#$URL: file:///home/coder/svn-repositories/cod/cif/1/54/67/1546776.cif $
#------------------------------------------------------------------------------
#
# This file is available in the Crystallography Open Database (COD),
# http://www.crystallography.net/. The original data for this entry
# were provided by IUCr Journals, http://journals.iucr.org/.
#
# The file may be used within the scientific community so long as
# proper attribution is given to the journal article from which the
# data were obtained.
#
data_1546776
loop_
_publ_author_name
'Pakhomova, Anna'
'Bykova, Elena'
'Bykov, Maxim'
'Glazyrin, Konstantin'
'Gasharova, Biliana'
'Liermann, Hanns-Peter'
'Mezouar, Mohamed'
'Gorelova, Liudmila'
'Krivovichev, Sergey'
'Dubrovinsky, Leonid'
_publ_section_title
;
 A closer look into close packing: pentacoordinated silicon in a
 high-pressure polymorph of danburite
;
_journal_issue                   5
_journal_name_full               IUCrJ
_journal_page_first
;
;
_journal_paper_doi               10.1107/S2052252517010612
_journal_volume                  4
_journal_year                    2017
_chemical_formula_moiety         'B2 Ca O8 Si2'
_chemical_formula_sum            'B2 Ca O8 Si2'
_chemical_formula_weight         245.88
_chemical_name_common            danburite
_chemical_name_systematic        danburite
_space_group_crystal_system      orthorhombic
_space_group_IT_number           62
_space_group_name_Hall           '-P 2c 2n'
_space_group_name_H-M_alt        'P n a m'
_symmetry_space_group_name_Hall  '-P 2c 2n'
_symmetry_space_group_name_H-M   'P n a m'
_audit_creation_method           SHELXL-2014/7
_cell_angle_alpha                90
_cell_angle_beta                 90
_cell_angle_gamma                90
_cell_formula_units_Z            4
_cell_length_a                   6.3537(5)
_cell_length_b                   7.9518(3)
_cell_length_c                   8.0112(3)
_cell_measurement_pressure       25400000
_cell_measurement_reflns_used    977
_cell_measurement_temperature    293(2)
_cell_measurement_theta_max      16.6370
_cell_measurement_theta_min      1.6750
_cell_volume                     404.75(4)
_computing_cell_refinement
;
CrysAlisPro, Agilent Technologies,
Version 1.171.36.28 (release 01-02-2013 CrysAlis171 .NET)
(compiled Feb  1 2013,16:14:44)
;
_computing_data_collection
;
CrysAlisPro, Agilent Technologies,
Version 1.171.36.28 (release 01-02-2013 CrysAlis171 .NET)
(compiled Feb  1 2013,16:14:44)
;
_computing_data_reduction
;
CrysAlisPro, Agilent Technologies,
Version 1.171.36.28 (release 01-02-2013 CrysAlis171 .NET)
(compiled Feb  1 2013,16:14:44)
;
_computing_structure_refinement  'SHELXL-2014/7 (Sheldrick, 2014)'
_computing_structure_solution    'SHELXL-2014/7 (Sheldrick, 2014)'
_diffrn_ambient_pressure         25400000
_diffrn_ambient_temperature      293(2)
_diffrn_measured_fraction_theta_full 0.796
_diffrn_measured_fraction_theta_max 0.515
_diffrn_measurement_device_type
'esperanto-CrysAlisPro-abstract goniometer imported esperanto images'
_diffrn_measurement_method       '\w scans'
_diffrn_radiation_type           synchrotron
_diffrn_radiation_wavelength     0.29056
_diffrn_reflns_av_R_equivalents  0.0239
_diffrn_reflns_av_unetI/netI     0.0291
_diffrn_reflns_Laue_measured_fraction_full 0.796
_diffrn_reflns_Laue_measured_fraction_max 0.515
_diffrn_reflns_limit_h_max       9
_diffrn_reflns_limit_h_min       -10
_diffrn_reflns_limit_k_max       12
_diffrn_reflns_limit_k_min       -13
_diffrn_reflns_limit_l_max       14
_diffrn_reflns_limit_l_min       -15
_diffrn_reflns_number            2163
_diffrn_reflns_point_group_measured_fraction_full 0.796
_diffrn_reflns_point_group_measured_fraction_max 0.515
_diffrn_reflns_theta_full        10.500
_diffrn_reflns_theta_max         16.730
_diffrn_reflns_theta_min         1.677
_diffrn_source                   synchrotron
_diffrn_source_type              'PETRA III, Beamline P02.2'
_exptl_absorpt_coefficient_mu    0.215
_exptl_crystal_colour            colorless
_exptl_crystal_density_diffrn    4.035
_exptl_crystal_description       'plate crystal'
_exptl_crystal_F_000             488
_exptl_crystal_size_max          0.020
_exptl_crystal_size_mid          0.015
_exptl_crystal_size_min          0.010
_refine_diff_density_max         1.049
_refine_diff_density_min         -1.441
_refine_diff_density_rms         0.280
_refine_ls_extinction_coef       0.18(5)
_refine_ls_extinction_expression Fc^*^=kFc[1+0.001xFc^2^\l^3^/sin(2\q)]^-1/4^
_refine_ls_extinction_method     'SHELXL-2014/7 (Sheldrick 2014'
_refine_ls_goodness_of_fit_ref   1.321
_refine_ls_hydrogen_treatment    undef
_refine_ls_matrix_type           full
_refine_ls_number_parameters     65
_refine_ls_number_reflns         891
_refine_ls_number_restraints     0
_refine_ls_restrained_S_all      1.321
_refine_ls_R_factor_all          0.0596
_refine_ls_R_factor_gt           0.0423
_refine_ls_shift/su_max          0.000
_refine_ls_shift/su_mean         0.000
_refine_ls_structure_factor_coef Fsqd
_refine_ls_weighting_details
'w=1/[\s^2^(Fo^2^)+(0.0923P)^2^+0.4473P] where P=(Fo^2^+2Fc^2^)/3'
_refine_ls_weighting_scheme      calc
_refine_ls_wR_factor_gt          0.1256
_refine_ls_wR_factor_ref         0.1783
_reflns_Friedel_coverage         0.000
_reflns_number_gt                742
_reflns_number_total             891
_reflns_threshold_expression     'I > 2\s(I)'
_cod_data_source_file            lt5006.cif
_cod_data_source_block           danburite_25.4GPa
_cod_database_code               1546776
_shelx_shelxl_version_number     2014/7
_shelx_space_group_comment
;
The symmetry employed for this shelxl refinement is uniquely defined
by the following loop, which should always be used as a source of
symmetry information in preference to the above space-group names.
They are only intended as comments.
;
_shelx_res_file
;

    shelx.res created by SHELXL-2014/7


TITL dom1
CELL 0.29056 6.3537 7.9518 8.0112 90 90 90
ZERR 4.0000 0.0005 0.0003 0.0003 0.000 0.000 0.000

LATT 1
SYMM -x,-y,z+1/2
SYMM -x+1/2,y+1/2,-z
SYMM x+1/2,-y+1/2,-z+1/2
SFAC  B O Si Ca
DISP    Ca    0.04254    0.05130       101.42
DISP    O    -0.00099    0.00082         6.66
DISP    Si    0.00828    0.01077        28.22
DISP    B    -0.00051    0.00009         3.17
UNIT 8 32 8 4
L.S. 10
ACTA 21
omit 6 10 2
omit 3 5 1
omit 8 6 5
omit 5 2 10
WGHT    0.092300    0.447300
EXTI    0.175739
FVAR       2.04768
CA1   4    0.254044    0.109294    0.250000    10.50000    0.01572    0.00685 =
         0.01108    0.00000    0.00000    0.00054
SI1   3   -0.005814    0.235367   -0.073647    11.00000    0.01553    0.00612 =
         0.00917   -0.00001   -0.00005   -0.00085
O1    2    0.251259    0.136769   -0.073799    11.00000    0.01528    0.00610 =
         0.01178    0.00019    0.00034   -0.00043
O2    2    0.124320    0.406785   -0.057196    11.00000    0.01467    0.00360 =
         0.01131    0.00013   -0.00057   -0.00088
O3    2    0.432514    0.366395    0.093920    11.00000    0.01351    0.00923 =
         0.01011   -0.00102    0.00062    0.00202
O4    2    0.562968    0.651774    0.250000    10.50000    0.01693    0.00782 =
         0.00953    0.00000    0.00000    0.00224
O5    2    0.123850    0.408149    0.250000    10.50000    0.01536    0.00872 =
         0.00919    0.00000    0.00000   -0.00100
B1    1    0.229202    0.454941    0.404614    11.00000    0.01176    0.00527 =
         0.01084    0.00010   -0.00035    0.00004
HKLF 4

REM  dom1
REM R1 =  0.0423 for     742 Fo > 4sig(Fo)  and  0.0596 for all     891 data
REM     65 parameters refined using      0 restraints

END

WGHT      0.0920      0.4469

REM Highest difference peak  1.049,  deepest hole -1.441,  1-sigma level  0.280
Q1    1   0.5108  0.8189  0.2500  10.50000  0.05    1.05
Q2    1   0.5948  0.7751  0.2500  10.50000  0.05    1.00
Q3    1   0.0041  0.2546  0.2500  10.50000  0.05    0.98
Q4    1   0.2978  0.3243  0.2500  10.50000  0.05    0.97
Q5    1   0.4257  0.3197  0.1436  11.00000  0.05    0.94
Q6    1   0.2983  0.2229  0.2500  10.50000  0.05    0.90
Q7    1   0.3889  0.7752  0.2500  10.50000  0.05    0.88
Q8    1   0.3152  0.1430 -0.0057  11.00000  0.05    0.88
Q9    1   0.0505  0.3459 -0.0342  11.00000  0.05    0.84
Q10   1   0.1957  0.2376  0.0632  11.00000  0.05    0.83
Q11   1   0.1168  0.4383 -0.2500  10.50000  0.05    0.82
Q12   1   0.4848  0.7291  0.2500  10.50000  0.05    0.82
Q13   1   0.1419  0.0388  0.2500  10.50000  0.05    0.80
Q14   1   0.0693  0.5200 -0.0020  11.00000  0.05    0.79
Q15   1   0.4347  0.2668  0.0376  11.00000  0.05    0.79
Q16   1   0.1248  0.1939  0.0110  11.00000  0.05    0.78
Q17   1   0.4405  0.3558  0.0433  11.00000  0.05    0.77
Q18   1   0.1220  0.5437  0.2500  10.50000  0.05    0.77
Q19   1   0.1858  0.1994  0.2877  11.00000  0.05    0.77
Q20   1   0.4285  0.2005  0.2500  10.50000  0.05    0.76
;
_shelx_res_checksum              85454
_shelx_hkl_file
;
   0   0  -3    0.65    1.48   1
   0   0  -4 2513.64   55.92   1
   0   0  -5    2.41    3.76   1
   0   0  -699999.90  443.53   1
   0   0  -7   -0.40    3.72   1
   0   0  -8 1472.24   59.31   1
   0   0  -9   -4.02    4.88   1
   0   0 -10 2868.18   94.35   1
   0   0 -11   -5.70    7.67   1
   0   0 -1211140.00  200.16   1
   0   0 -13   -6.28    8.07   1
   0   1  -2    1.41    1.56   1
   0  -1   2   -1.33    1.20   1
   0  -1   338984.80  231.11   1
   0   1  -338941.50  227.03   1
   0   1  -4   -1.32    3.29   1
   0  -1   4   -1.00    2.29   1
   0  -1   5 9075.99  131.48   1
   0   1  -5 9399.46  132.63   1
   0   1  -6   -6.04    4.93   1
   0  -1   6   -5.13    6.59   1
   0  -1   7 3841.39   99.34   1
   0   1  -7 3780.83   95.92   1
   0   1  -8    2.01    4.12   1
   0   1  -9 6878.14  145.48   1
   0   1 -10   -0.79    6.33   1
   0   1 -11 2547.10   95.71   1
   0   1 -12    4.64    9.42   1
   0  -1 -12   -3.60    6.37   1
   0  -1 -13 2386.21   91.73   1
   0   1 -13 2497.35   98.59   1
   0   1 -14  240.63   36.26   1
   0  -2   010745.30  150.70   1
   0  -2   1    0.50    2.21   1
   0   2  -1    0.63    1.97   1
   0   2  -2 7744.84  116.62   1
   0  -2   2 7810.67  114.77   1
   0   2  -3   -0.19    2.05   1
   0  -2   3    0.08    2.19   1
   0  -2   4 2153.17   67.09   1
   0   2  -4 2105.83   70.53   1
   0   2  -5    4.02    4.35   1
   0  -2   5   -1.98    3.60   1
   0  -2   6 3856.65  100.12   1
   0   2  -6 3857.06   99.89   1
   0  -2   7    0.25    4.91   1
   0   2  -7   -1.24    6.36   1
   0   2  -8 5127.50  129.75   1
   0  -2   8 5251.17  129.60   1
   0   2  -9   -0.95   12.41   1
   0  -2   9    1.02    4.84   1
   0   2 -10    2.04    5.85   1
   0  -2  10   21.75   10.62   1
   0   2 -11   -0.77    7.05   1
   0   2 -12  529.34   47.29   1
   0   2 -13   19.59   12.88   1
   0   2 -14 1395.05   83.73   1
   0  -3   131858.70  304.24   1
   0   3  -132018.50  309.75   1
   0  -3   2    1.03    2.81   1
   0   3  -2   -1.18    4.72   1
   0   3  -3  360.94   30.38   1
   0  -3   3  351.71   31.92   1
   0   3  -4    3.44    7.20   1
   0  -3   4    3.28    4.44   1
   0   3  -510245.70  175.61   1
   0  -3   510308.50  173.20   1
   0  -3   6  -20.63    8.11   1
   0   3  -6   -8.39    9.45   1
   0  -3   713569.30  214.00   1
   0   3  -713755.30  239.52   1
   0  -3   8    3.51    5.84   1
   0   3  -8    0.01    6.96   1
   0   3  -9  281.83   35.26   1
   0  -3   9  297.48   33.73   1
   0  -3  10    1.76    6.35   1
   0   3 -10  -10.25   11.25   1
   0   3 -11 2988.45  123.89   1
   0  -3  11 3147.24  116.39   1
   0  -3  12   27.06   11.12   1
   0   3 -12  -12.56   10.47   1
   0   3 -13 2660.96  123.49   1
   0   3 -14    7.49    9.93   1
   0  -4   1   18.26   17.82   1
   0   4  -1   57.28   30.64   1
   0   4  -212474.90  198.54   1
   0  -4   212457.90  200.11   1
   0  -4   3   11.32    8.41   1
   0   4  -3    0.31    6.35   1
   0  -4   410866.10  201.66   1
   0   4  -410711.50  198.63   1
   0  -4   5    4.24    6.82   1
   0   4  -5    0.03    5.77   1
   0  -4   6 4890.14  130.25   1
   0   4  -6 4860.52  138.94   1
   0  -4   7 2267.75   95.85   1
   0   4  -7   12.28   29.03   1
   0  -4   8 7062.32  171.29   1
   0   4  -8 7100.33  174.80   1
   0   4  -9   11.70    7.90   1
   0  -4   9   77.41   24.46   1
   0  -4  10 2427.85  104.77   1
   0   4 -10 2412.28  108.12   1
   0  -4  11    1.98    6.36   1
   0   4 -11    3.37    6.78   1
   0  -4  12  634.46   57.52   1
   0   4 -12  666.43   57.27   1
   0   4 -13   -1.12   10.23   1
   0  -4  13   -7.53    9.84   1
   0   4 -14 2235.39  116.73   1
   0   5  -1 1251.68   85.90   1
   0  -5   1 1304.35   74.24   1
   0  -5   2    3.69    7.51   1
   0   5  -2   -0.37    7.70   1
   0   5  -3 8063.52  181.14   1
   0  -5   3 8026.84  183.07   1
   0   5  -4    2.59    6.75   1
   0  -5   4    0.86    5.33   1
   0   5  -5 1864.19   95.20   1
   0  -5   5 1942.37   90.74   1
   0   5  -6    7.95   11.02   1
   0  -5   6   14.55   10.07   1
   0  -5   7    2.95    5.42   1
   0   5  -7   14.12    9.82   1
   0  -5   8   -9.30    7.98   1
   0   5  -8   -2.04    9.41   1
   0   5  -9 1202.71   81.39   1
   0  -5   9 1301.02   80.90   1
   0  -5  10    3.07    9.11   1
   0   5 -10    4.82   10.56   1
   0  -5  11  611.05   56.73   1
   0   5 -11  590.68   61.29   1
   0  -5  12   -0.63    9.31   1
   0   5 -12   14.06   12.26   1
   0   5 -13   56.34   21.89   1
   0  -5  13  595.45   57.34   1
   0   5 -14   -0.87    9.24   1
   0  -6   1    2.64    6.10   1
   0   6  -2  831.75   70.98   1
   0  -6   2  792.79   61.42   1
   0   6  -3   -2.17    9.94   1
   0  -6   3    5.25    6.66   1
   0  -6   4  925.52   63.44   1
   0   6  -4  986.78   68.00   1
   0   6  -5    2.93    9.24   1
   0  -6   5    1.33    8.15   1
   0  -6   6 8697.79  206.71   1
   0   6  -6 8806.10  236.02   1
   0  -6   7   -0.75    9.23   1
   0   6  -7    9.98   13.01   1
   0   6  -8 1141.19   80.66   1
   0  -6   8 1155.24   77.72   1
   0   6  -9   -4.72   12.43   1
   0  -6   9   -0.19    7.56   1
   0   6 -10 1839.19  109.82   1
   0  -6  10 1892.92  106.41   1
   0   6 -11  -15.98   13.04   1
   0  -6  11  -18.80   15.51   1
   0   6 -12  690.25   71.52   1
   0  -6  12  691.93   66.64   1
   0   6 -13   -1.85   13.29   1
   0  -6  13  -23.69   16.33   1
   0   6 -14   77.84   27.21   1
   0   7  -2   15.22   10.65   1
   0  -7   2    2.21    7.80   1
   0  -7   336440.40  453.58   1
   0   7  -336093.30  515.46   1
   0   7  -4   -9.59   12.62   1
   0  -7   4   -7.96    8.94   1
   0  -7   5   46.62   19.10   1
   0   7  -5   42.88   17.17   1
   0   7  -6   11.69   12.98   1
   0  -7   6   -4.50    9.18   1
   0   7  -7 3637.47  158.96   1
   0  -7   7 3548.21  144.39   1
   0   7  -8  -16.06   17.29   1
   0  -7   8   -1.08    7.62   1
   0   7  -9 8611.32  267.42   1
   0  -7   9 8794.73  234.29   1
   0  -7  10   13.28   15.24   1
   0   7 -10   14.21   15.00   1
   0   7 -11   15.67   18.83   1
   0  -7  11  -11.17   11.95   1
   0  -7  12  -14.82   12.30   1
   0   7 -12   10.99   14.39   1
   0   7 -13 1798.01  135.74   1
   0  -7  13 1803.72  118.75   1
   0   7 -14   93.12   40.69   1
   0  -8   2  271.96   41.93   1
   0  -8   3   -1.00   10.87   1
   0   8  -3   -2.09   14.22   1
   0  -8   4   86.84   25.25   1
   0   8  -4   46.43   18.49   1
   0   8  -5    2.67   12.35   1
   0  -8   5   -9.16   10.02   1
   0  -8   611737.70  297.26   1
   0   8  -611825.40  304.85   1
   0   8  -7   34.01   17.38   1
   0  -8   7   -4.26   11.03   1
   0   8  -8  377.22   54.48   1
   0  -8   8  320.84   46.60   1
   0   8  -9  -15.77   15.81   1
   0  -8   9    4.34    8.38   1
   0   8 -10  396.56   61.54   1
   0  -8  10  402.32   56.08   1
   0  -8  11    6.00   14.48   1
   0   8 -11    2.05   14.73   1
   0  -8  12 2315.94  135.87   1
   0   8 -12 2701.22  160.33   1
   0   9  -3   59.89   32.20   1
   0  -9   3   45.48   18.12   1
   0   9  -4  902.96  173.10   1
   0  -9   4   12.34   17.17   1
   0   9  -5 2355.11  150.76   1
   0  -9   5 2524.88  134.57   1
   0  -9   6    6.21   15.72   1
   0   9  -6 1408.32  157.93   1
   0   9  -7  169.54   37.25   1
   0  -9   7  151.31   33.88   1
   0   9  -8   -3.80   22.59   1
   0  -9   8  185.68   42.82   1
   0  -9   9    4.95    9.16   1
   0   9  -9   -7.72   14.48   1
   0  -9  10   -2.17   12.37   1
   0   9 -10  109.23   45.06   1
   0  10  -4 5183.11  269.26   1
   0 -10   4 5633.85  220.93   1
   0  10  -5   -7.45   19.40   1
   0 -10   5    2.42   11.29   1
   0 -10   6  536.50   69.78   1
   0  10  -6  525.69   77.03   1
   0  10  -7    6.12   20.18   1
   0 -10   7   -8.15   12.68   1
   0 -10   8 1577.66  117.33   1
   0 -11   4   36.69   26.92   1
   0 -11   5 4169.57  197.69   1
   1   0  -5   -1.54    2.09   1
   1   0  -6    2.53    2.74   1
   1   0  -7   -1.46    3.67   1
   1   0  -8   -1.96    4.22   1
   1   0  -9   -6.40    4.79   1
   1   0 -10    0.81    4.33   1
   1   0 -11   -0.38    4.69   1
   1   0 -12    4.08    5.97   1
   1   0 -13    5.42   18.92   1
   1  -1   0   25.82    4.29   1
  -1   1   0   26.74    4.44   1
   1  -1   1  609.52   25.87   1
  -1   1  -1  614.22   25.86   1
  -1  -1   2  126.56   13.83   1
  -1   1  -2  114.89   12.50   1
   1  -1   2  109.19   12.37   1
  -1   1  -319088.80  186.91   1
  -1  -1   318897.10  152.24   1
   1  -1   318989.40  186.86   1
   1   1  -318834.30  164.13   1
  -1  -1   4 1596.34   45.00   1
  -1   1  -4 1581.84   59.04   1
   1  -1   4 1593.38   60.20   1
   1   1  -4 1667.89   46.56   1
  -1   1  -5 2406.28   78.78   1
   1  -1   5 2520.49   80.34   1
  -1  -1   5 2481.67   61.79   1
   1   1  -5 2650.57   63.34   1
   1  -1  -6  204.17   14.38   1
  -1  -1   6  182.13   18.24   1
  -1   1  -6  198.16   22.99   1
   1   1  -6  210.31   19.32   1
   1   1  -7    9.16   10.19   1
   1  -1  -7   -0.50    3.00   1
  -1   1  -7    4.13    5.38   1
  -1  -1   7   -0.53    4.42   1
   1   1  -8   89.11   14.91   1
   1  -1  -8   77.85   10.98   1
  -1   1  -8   65.53   15.12   1
  -1  -1   8   79.64   14.59   1
   1   1  -9 3752.01  100.56   1
   1  -1  -9 3672.65   80.67   1
  -1   1  -9 3670.98  114.86   1
   1   1 -10  472.80   37.55   1
   1  -1 -10  486.32   31.95   1
  -1   1 -10  497.74   45.85   1
   1   1 -11  701.28   48.03   1
  -1   1 -11  712.23   57.01   1
   1  -1 -11  696.44   40.37   1
   1  -1 -12  133.12   18.68   1
   1   1 -12  128.37   21.16   1
  -1   1 -12  138.84   26.89   1
  -1   1 -13    1.25    8.39   1
   1   1 -13    3.85   12.00   1
  -1   1 -14   -1.62    8.26   1
   1  -2   0 1120.62   37.28   1
  -1   2   0 1042.73   39.05   1
  -1   2   1  458.92   23.23   1
   1  -2  -1  508.90   23.65   1
  -1   2  -1  500.97   28.68   1
   1  -2   1  477.33   27.21   1
   1  -2   2 6391.89  112.00   1
  -1   2  -2 6508.35  111.42   1
   1  -2  -2 6358.47   85.93   1
  -1   2  -322675.30  231.40   1
   1  -2   322815.70  224.61   1
  -1  -2   322782.70  225.67   1
   1   2  -322975.50  240.02   1
  -1  -2   4 4017.88   89.35   1
   1  -2   4 3688.67   95.39   1
   1   2  -4 3937.50   94.41   1
  -1   2  -4 3645.49   98.53   1
  -1   2  -5  162.42   22.47   1
   1   2  -5  202.24   21.36   1
  -1  -2   5  183.81   20.11   1
   1  -2   5  169.01   22.83   1
  -1  -2   6 2429.83   66.40   1
   1   2  -6 2798.23  164.66   1
   1  -2   6 1633.12   71.43   1
  -1   2  -6 1631.17   72.82   1
   1  -2   7  301.25   32.74   1
  -1   2  -7  305.57   33.23   1
  -1  -2   7  296.27   27.42   1
   1  -2   8  809.05   56.44   1
  -1  -2   8  861.42   49.24   1
  -1   2  -8  814.20   55.56   1
   1   2  -8  948.55   53.18   1
  -1   2  -9  714.07   54.49   1
   1   2  -9  747.09   47.21   1
  -1  -2   9  757.64   46.75   1
  -1   2 -10 1077.36   69.42   1
   1   2 -10 1136.07   60.64   1
  -1  -2  10 1149.94   60.22   1
  -1  -2  11  328.39   33.58   1
  -1   2 -11  329.34   39.67   1
   1  -2 -11  323.40   26.45   1
   1   2 -11  355.13   34.28   1
   1  -2 -12  742.51   40.80   1
  -1   2 -12  781.37   61.78   1
   1   2 -12  800.26   54.23   1
   1   2 -13   61.24   16.69   1
  -1   2 -13   56.39   18.41   1
  -1   2 -14   25.84   14.67   1
  -1   3   017219.70  193.15   1
   1  -3   017273.00  183.80   1
  -1   3  -1 1047.35   48.67   1
  -1   3   1 1080.51   44.70   1
   1  -3  -1 1047.34   44.29   1
   1  -3   1 1046.18   49.00   1
   1  -3   2   63.45   12.24   1
  -1   3  -2   63.66   12.81   1
   1  -3  -2   80.00   11.43   1
   1  -3   310449.60  168.26   1
  -1  -3   310441.50  179.10   1
   1   3  -310337.40  206.51   1
  -1   3  -310367.90  168.69   1
  -1   3  -4  417.30   37.16   1
  -1  -3   4  417.99   35.14   1
   1  -3   4  395.17   35.22   1
   1   3  -4  405.70   37.22   1
  -1  -3   5  277.88   29.34   1
   1   3  -5  341.08   30.85   1
  -1   3  -5  275.01   30.65   1
   1  -3   5  287.29   30.84   1
  -1   3  -6 3903.71  117.92   1
  -1  -3   6 3895.60  108.57   1
   1  -3   6 3908.56  113.71   1
   1  -3   7  754.17   54.15   1
  -1   3  -7  764.58   54.41   1
  -1  -3   7  780.29   48.43   1
   1   3  -7  768.10   50.91   1
   1   3  -8    9.06    6.61   1
  -1  -3   8   11.62    5.80   1
  -1   3  -8   11.36   10.43   1
   1  -3   8   14.07    9.56   1
  -1   3  -9 1318.20   76.35   1
  -1  -3   9 1322.06   66.44   1
   1   3  -9 1343.03   69.47   1
   1  -3   9 1292.79   75.80   1
  -1  -3  10   89.75   18.10   1
  -1   3 -10   75.53   20.34   1
   1   3 -10   80.78   18.15   1
   1  -3  10   71.97   19.12   1
  -1  -3  11   26.93   10.72   1
   1   3 -11   30.12   15.02   1
  -1   3 -11   44.80   16.47   1
   1  -3  11   57.56   21.29   1
  -1  -3  12  530.98   53.43   1
   1   3 -12  639.42   60.92   1
  -1   3 -12  528.78   54.67   1
  -1   3 -13  308.14   41.57   1
   1   3 -13  306.04   38.64   1
  -1   3 -14    8.49    8.59   1
  -1   4   0 3222.70   97.57   1
   1  -4   0 3276.09   97.00   1
   1  -4  -1  725.71   45.75   1
  -1   4  -1  651.83   42.88   1
   1  -4   1  617.19   40.74   1
  -1   4   1  751.79   49.40   1
   1  -4   2 5331.09  132.81   1
  -1   4  -2 5257.64  132.33   1
   1  -4  -2 5381.26  117.45   1
   1   4  -3 2742.82  125.76   1
  -1  -4   3 2929.04  105.94   1
   1  -4   3 2839.59   97.81   1
  -1   4  -3 2864.64   97.12   1
   1  -4   4 1212.10   67.47   1
   1   4  -4 1407.23   79.59   1
  -1   4  -4 1180.15   70.83   1
  -1  -4   4 1398.96   70.07   1
   1  -4   5 2079.74   87.73   1
  -1   4  -5 2086.63   93.85   1
   1   4  -5 2134.31   92.88   1
  -1  -4   5 2153.32   84.24   1
   1  -4   6  220.09   29.98   1
  -1   4  -6  215.76   31.23   1
   1   4  -6  243.66   31.28   1
  -1  -4   6  213.31   28.95   1
   1   4  -7  151.55   26.02   1
  -1  -4   7  145.54   23.67   1
   1  -4   7  152.44   25.43   1
  -1   4  -8  987.87   67.88   1
   1   4  -8  997.36   69.57   1
  -1  -4   8 1015.91   62.58   1
   1  -4   8 1035.77   67.22   1
   1  -4   9  265.10   36.07   1
  -1   4  -9  245.52   35.75   1
   1   4  -9  260.22   35.80   1
  -1  -4   9  253.23   31.36   1
  -1  -4  10  179.26   27.29   1
   1  -4  10  163.14   29.21   1
   1   4 -10  183.13   30.56   1
  -1   4 -10  161.65   30.20   1
   1  -4  11  545.15   55.26   1
   1   4 -11  581.92   54.11   1
  -1  -4  11  572.70   49.57   1
  -1   4 -11  533.29   55.64   1
   1   4 -12   13.12   11.02   1
  -1   4 -12   18.21   12.27   1
  -1  -4  12   10.16   11.09   1
   1  -4  12   19.18   11.72   1
  -1   4 -13  180.37   35.32   1
   1  -4  13  202.13   37.61   1
   1   4 -13  179.83   32.18   1
  -1   4 -14   72.33   21.70   1
  -1   5   0 8666.29  185.74   1
   1  -5   0 8956.78  178.14   1
   1  -5   1 3593.76  115.92   1
   1  -5  -1 3797.80  121.19   1
  -1   5   1 3623.59  128.62   1
  -1   5  -1 3550.04  122.54   1
  -1   5  -2  811.11   56.36   1
   1  -5   2  812.65   57.30   1
   1  -5  -2  945.47   53.93   1
   1  -5   3 2689.27  104.81   1
  -1  -5   3 2807.49  111.77   1
  -1   5  -3 2714.55  107.15   1
   1  -5   4  525.69   47.66   1
  -1  -5   4  534.80   47.02   1
   1   5  -4  524.97   55.18   1
  -1   5  -4  530.73   48.82   1
   1   5  -5 4124.84  154.07   1
  -1   5  -5 3557.58  125.34   1
  -1  -5   5 3935.21  130.30   1
   1  -5   5 3522.58  120.23   1
   1  -5   6 2145.88   98.81   1
  -1  -5   6 2165.36  100.61   1
  -1   5  -6 2190.98   99.31   1
   1   5  -6 2188.17  106.38   1
   1  -5   7  590.65   52.44   1
   1   5  -7  672.28   55.40   1
  -1   5  -7  593.11   54.35   1
  -1  -5   7  583.68   50.01   1
  -1  -5   8 1061.51   67.71   1
   1  -5   8 1023.62   71.96   1
   1   5  -8 1083.08   74.27   1
  -1   5  -8  997.22   74.92   1
  -1  -5   9 1568.60   84.57   1
  -1   5  -9 1557.89   97.17   1
   1  -5   9 1614.54   89.87   1
   1   5  -9 1590.02   93.42   1
  -1   5 -10  880.28   76.74   1
  -1  -5  10  913.09   66.15   1
   1   5 -10  936.67   75.42   1
   1  -5  10  911.27   70.31   1
  -1  -5  11  760.02   60.50   1
   1  -5  11  711.69   64.86   1
   1   5 -11  744.81   69.76   1
  -1   5 -11  752.69   72.64   1
  -1  -5  12   60.51   17.88   1
   1   5 -12   86.46   26.10   1
   1  -5  13   95.81   24.62   1
   1   5 -13   99.04   27.32   1
  -1   5 -13   90.15   29.34   1
   1  -5  14  177.61   37.02   1
  -1   5 -14   95.25   26.19   1
  -1   5 -15  670.60   70.83   1
  -1   6   0 8516.49  216.33   1
   1  -6   0 8421.51  193.98   1
  -1   6   1 1351.32   95.24   1
   1  -6   1 1453.73   80.62   1
   1  -6  -1 1300.21   81.36   1
   1  -6   2  959.80   63.59   1
  -1   6  -2 1067.67   77.10   1
   1  -6   313570.20  269.44   1
  -1   6  -312888.30  265.26   1
   1  -6   4  691.43   57.66   1
  -1   6  -4  687.17   59.40   1
   1   6  -4  795.93   78.99   1
  -1  -6   4  746.47   60.77   1
   1   6  -5 1289.85   92.32   1
  -1  -6   5 1295.17   81.63   1
  -1   6  -5 1266.94   80.59   1
   1  -6   5 1257.88   78.96   1
   1   6  -6 4546.12  176.70   1
  -1  -6   6 4276.89  143.60   1
  -1   6  -6 4214.76  157.52   1
   1  -6   6 4148.65  145.76   1
  -1   6  -7   86.58   24.33   1
  -1  -6   7   91.14   22.75   1
   1   6  -7   96.29   27.27   1
   1  -6   7   92.30   23.21   1
  -1  -6   8  396.79   44.82   1
   1   6  -8  414.35   48.41   1
  -1   6  -8  409.97   59.63   1
   1  -6   8  389.57   46.46   1
  -1  -6   9 2497.59  112.84   1
   1   6  -9 2645.37  125.18   1
  -1   6  -9 2564.56  129.00   1
   1  -6   9 2501.70  121.51   1
   1   6 -10  292.39   42.79   1
   1  -6  10  231.58   36.93   1
  -1  -6  10  267.32   38.89   1
  -1   6 -10  234.31   41.96   1
  -1  -6  11  175.49   32.01   1
  -1   6 -11  169.01   36.16   1
   1   6 -11  195.78   35.62   1
   1  -6  11  151.24   30.57   1
   1   6 -12 1206.98   90.92   1
  -1   6 -12 1130.54   89.97   1
   1  -6  12 1084.83   84.09   1
  -1  -6  12 1099.88   81.69   1
   1  -6  13  -24.57   18.30   1
  -1   6 -13  -20.37   15.49   1
   1   6 -13  -27.75   17.01   1
   1  -6  14   57.44   21.62   1
  -1   6 -14   52.91   21.86   1
  -1   7   0  170.12   34.42   1
   1  -7   0  164.84   28.38   1
   1  -7  -1   65.47   24.98   1
  -1   7  -1   72.66   26.72   1
   1  -7   1   80.77   24.80   1
  -1   7  -2 1584.80  102.64   1
   1  -7   2 1598.82  102.36   1
   1  -7   3 4837.25  169.82   1
  -1   7  -3 4843.65  171.42   1
   1  -7   4  303.55   42.75   1
  -1   7  -4  306.37   48.10   1
  -1  -7   4  309.14   42.76   1
  -1  -7   5  341.28   44.11   1
   1  -7   5  315.31   42.90   1
   1   7  -5  285.38   49.62   1
  -1   7  -5  291.19   44.01   1
   1   7  -6   -0.87   13.54   1
  -1   7  -6   -7.35    8.94   1
  -1  -7   6   -8.21   13.67   1
   1  -7   6    8.40   15.28   1
   1  -7   7  222.48   36.72   1
  -1  -7   7  209.82   36.64   1
   1   7  -7  260.27   45.27   1
  -1   7  -7  223.88   39.00   1
   1  -7   8 1256.14   90.04   1
  -1  -7   8 1310.10   86.79   1
  -1   7  -8 1333.21   94.60   1
   1   7  -8 1487.07  107.30   1
  -1  -7   9  867.27   73.02   1
   1  -7   9  819.33   73.25   1
  -1   7  -9  828.08   78.50   1
   1   7  -9  878.94   82.37   1
  -1   7 -10   11.87   11.50   1
  -1  -7  10  -21.53   13.04   1
   1  -7  10  -14.67   14.41   1
   1   7 -10   20.71   19.91   1
   1  -7  11   65.43   22.70   1
  -1   7 -11   96.06   29.52   1
   1   7 -12   17.89   14.16   1
   1  -7  12   -2.14   12.11   1
  -1  -7  12  -19.38   13.46   1
  -1   7 -12    9.63   14.34   1
   1  -7  13  151.28   36.38   1
   1   7 -13  210.38   41.01   1
  -1  -7  13  201.22   37.54   1
   1   7 -14  663.14   71.64   1
  -1   8   0  186.09   44.62   1
   1  -8   0  185.61   31.73   1
  -1   8  -1  458.85   54.85   1
   1  -8   1  521.82   53.36   1
  -1   8  -2 3389.10  161.86   1
   1  -8   2 3377.68  144.76   1
  -1   8  -3 2235.31  120.40   1
   1  -8   3 2205.26  115.91   1
  -1   8  -4  557.34   62.02   1
   1  -8   4  541.20   63.30   1
   1  -8   5  291.31   42.98   1
  -1  -8   5  309.06   44.34   1
  -1   8  -5  283.93   46.34   1
   1  -8   6  470.48   55.96   1
   1   8  -6  457.29   68.77   1
  -1  -8   6  529.07   59.63   1
  -1   8  -6  482.33   63.61   1
  -1  -8   7  425.90   59.99   1
  -1   8  -7  305.94   51.17   1
   1  -8   7  297.12   44.29   1
   1   8  -7  453.29   73.86   1
   1  -8   8 2410.24  130.83   1
  -1   8  -8 2300.18  136.07   1
   1   8  -8 2474.57  153.72   1
  -1  -8   8 2462.95  134.46   1
   1   8  -9  898.28  103.71   1
   1  -8   9  944.66   83.61   1
  -1  -8   9 1009.97   83.33   1
  -1   8  -9  899.25   88.52   1
   1   8 -10    5.65   14.25   1
  -1  -8  10    0.05   13.89   1
   1  -8  10    9.52   14.64   1
  -1   8 -10   25.79   14.35   1
   1  -8  11  361.01   58.03   1
  -1  -8  11  139.55   32.77   1
  -1   8 -11  299.46   64.11   1
   1   8 -11  124.57   40.04   1
   1   8 -12  407.86   64.19   1
  -1  -8  12  319.25   51.84   1
  -1  -8  13   31.15   18.68   1
   1   8 -13  148.41   42.93   1
   1  -9   0 2055.21  119.01   1
   1  -9   1 3092.51  145.70   1
  -1   9  -1 2933.11  171.30   1
  -1   9  -2 1947.60  130.74   1
   1  -9   2 2136.99  121.61   1
   1  -9   3  493.32   57.32   1
  -1   9  -3  481.04   64.31   1
   1  -9   4 1297.95  104.10   1
  -1   9  -4 1228.80   97.81   1
   1  -9   5 2267.48  132.57   1
  -1   9  -5 2287.03  133.93   1
  -1  -9   5 2266.65  129.86   1
  -1  -9   6 1198.46   96.15   1
  -1   9  -6 1071.48   96.29   1
   1  -9   6 1070.26   89.19   1
   1   9  -7 1316.54  126.36   1
  -1  -9   7 1391.88  101.58   1
   1  -9   7 1351.03  103.60   1
  -1   9  -7 1415.58  113.46   1
   1   9  -8 1090.27  115.53   1
   1  -9   8 1123.36   92.86   1
  -1   9  -8 1042.21  104.26   1
  -1  -9   8 1140.44   99.37   1
   1  -9   9  490.69   65.06   1
  -1   9  -9  593.93   85.10   1
  -1  -9   9  460.17   60.29   1
   1   9  -9  440.42   76.79   1
  -1  -9  10  964.28   94.85   1
   1   9 -10  243.35   50.91   1
  -1  -9  11  582.21   70.10   1
   1   9 -11  556.13   83.57   1
   1 -10   1  163.73   33.32   1
  -1  10  -2  377.46   69.18   1
   1 -10   2  453.58   79.21   1
  -1  10  -3 1946.28  140.71   1
   1 -10   3 2097.64  127.17   1
  -1  10  -4 1253.35  113.52   1
   1 -10   4 1190.06  102.05   1
   1 -10   5 1091.57  101.13   1
  -1  10  -5 1037.93  102.23   1
   1 -10   6  844.98   85.08   1
  -1 -10   6  974.17   92.28   1
  -1  10  -6  902.59   90.93   1
   1 -10   7  205.86   45.41   1
  -1 -10   7  220.64   42.09   1
  -1 -10   8   23.05   20.01   1
   1  10  -8  225.96   80.66   1
  -1  11  -2 1231.34  134.65   1
   1 -11   2 1335.15  108.44   1
   1 -11   3 3068.41  163.97   1
  -1  11  -3 2829.44  195.41   1
   1 -11   4  103.85   32.51   1
  -1  11  -4  272.29   72.56   1
   2   0  -7  821.94   32.23   1
   2   0  -8 6175.81   95.66   1
   2   0  -9  744.10   34.73   1
   2   0 -10  701.80   36.71   1
   2   0 -11   49.79   12.83   1
   2   0 -12   48.91   14.79   1
  -2   1   0  234.35   18.86   1
  -2   1   114073.40  124.75   1
  -2  -1   4  706.06   34.58   1
  -2  -1   512095.70  129.31   1
  -2  -1   6  262.79   19.48   1
  -2  -1   7 1757.70   53.82   1
   2   1  -7 1694.38   63.66   1
  -2  -1   8  142.50   15.39   1
   2  -1  -8  112.17   11.08   1
   2   1  -8  158.65   17.26   1
  -2  -1   9    2.36    4.70   1
   2   1  -9   -0.23    5.27   1
   2  -1  -9    4.51    3.02   1
   2  -1 -10  241.65   19.58   1
   2   1 -10  341.62   30.44   1
   2   1 -11 3641.77   99.06   1
   2  -1 -11 3304.05   80.09   1
   2   1 -12  145.09   18.96   1
   2  -1 -12  124.62   15.86   1
  -2   2   034089.40  244.38   1
   2  -2   033946.20  235.72   1
   2  -2   1    0.48    2.56   1
   2  -2  -1    2.34    2.82   1
  -2   2  -1   -1.04    2.63   1
  -2   2   1   -0.90    2.44   1
   2  -2  -2 3406.69   60.18   1
  -2   2   2 3338.14   60.52   1
   2  -2   2 3215.86   87.88   1
  -2   2  -2 3374.93   89.32   1
   2  -2   3  554.09   39.24   1
  -2   2  -3  568.82   39.10   1
  -2   2  -4  748.49   49.39   1
   2  -2   4  719.95   48.95   1
  -2  -2   4  779.46   45.86   1
   2  -2   5  319.04   33.13   1
  -2  -2   5  318.79   26.29   1
  -2   2  -5  315.31   32.66   1
   2  -2   614536.10  228.15   1
  -2  -2   614440.70  188.88   1
  -2   2  -614393.60  228.91   1
  -2   2  -7  194.72   28.26   1
  -2  -2   7  209.65   21.71   1
   2   2  -7  241.43   27.81   1
  -2  -2   8 2043.09   71.55   1
   2   2  -8 2242.29   83.12   1
  -2   2  -8 2098.68   96.48   1
  -2  -2   9    6.30    6.65   1
  -2   2  -9    5.59   10.79   1
   2  -2  -9    4.57    2.68   1
   2   2  -9    4.15    5.60   1
   2   2 -10   10.03    7.42   1
  -2  -2  10    3.30    4.42   1
   2  -2 -10    7.92    4.12   1
  -2   2 -11   57.16   20.18   1
   2  -2 -11   48.17    8.48   1
   2   2 -11   76.98   17.15   1
  -2  -2  11   67.50   15.05   1
  -2   2 -12 1879.97  105.01   1
   2   2 -12 2038.51   89.01   1
  -2   2 -13   74.69   22.60   1
   2   2 -13   78.67   20.23   1
  -2   2 -14  214.86   35.95   1
  -2   2 -15   18.78   15.23   1
   2  -3   0 7307.11  124.64   1
  -2   3   0 7452.12  127.03   1
   2  -3  -1  273.40   20.89   1
  -2   3  -1  246.32   23.26   1
  -2   3   1  259.54   22.23   1
   2  -3   1  243.04   23.03   1
   2  -3   2  556.17   39.58   1
  -2   3  -2  554.82   39.68   1
   2  -3  -2  572.99   30.67   1
  -2   3   2  579.62   31.91   1
  -2   3  -348567.00  398.43   1
   2  -3  -348093.60  291.50   1
  -2   3   348322.60  308.45   1
   2  -3   348459.10  381.35   1
  -2   3  -4 1110.45   63.98   1
   2  -3  -4 1204.85   40.82   1
   2  -3   4 1141.11   62.11   1
  -2   3  -5  771.88   56.73   1
   2  -3   5  758.32   54.67   1
   2  -3  -5  701.69   34.45   1
  -2  -3   5  715.76   49.71   1
  -2   3  -6 3280.88  134.53   1
   2  -3   6 3878.42  137.40   1
  -2  -3   6  642.81   43.08   1
   2  -3  -6  559.41   31.10   1
  -2   3  -7 1994.01   94.17   1
  -2  -3   7 1828.22   76.53   1
   2  -3   7 1799.92   88.39   1
   2   3  -7 1938.86   93.46   1
   2  -3   8  393.81   43.38   1
  -2  -3   8  436.58   35.45   1
  -2   3  -8  407.42   45.16   1
   2   3  -8  489.43   45.35   1
  -2  -3   910219.00  177.67   1
  -2   3  -9 9931.04  226.99   1
   2  -3   910026.30  219.56   1
   2   3  -910474.40  209.92   1
  -2  -3  10  957.05   55.60   1
  -2   3 -10  846.53   67.80   1
   2   3 -10  979.91   61.86   1
   2   3 -11  452.01   42.18   1
  -2   3 -11  354.95   46.70   1
  -2  -3  11  441.42   38.36   1
   2  -3 -12   46.65   10.87   1
  -2   3 -12   11.33   10.56   1
  -2   3 -13 1205.73   92.91   1
   2   3 -13 1620.82   82.13   1
  -2   3 -14    9.98   13.54   1
  -2   3 -15 1298.82   95.09   1
   2  -4   034300.30  311.00   1
  -2   4   034201.70  307.63   1
   2  -4   1  174.10   21.60   1
   2  -4  -1  163.79   19.58   1
  -2   4  -1  163.69   22.55   1
  -2   4   1  156.54   19.03   1
   2  -4   2  407.08   36.99   1
   2  -4  -2  419.85   31.43   1
  -2   4  -2  407.79   36.87   1
  -2   4   2  446.04   34.47   1
  -2   4   311493.50  190.54   1
   2  -4   311681.40  206.52   1
  -2   4  -312062.00  216.32   1
   2  -4  -311776.00  162.91   1
   2  -4   4 1649.14   81.73   1
  -2   4  -4 1670.65   83.76   1
   2  -4  -4 1701.34   61.60   1
  -2   4  -5  250.05   32.76   1
   2  -4  -5  272.11   24.10   1
  -2  -4   5  266.83   33.81   1
   2  -4   5  239.16   31.20   1
   2  -4  -615072.80  188.20   1
  -2   4  -614878.20  257.33   1
   2  -4   615257.90  253.39   1
  -2  -4   615247.00  240.42   1
  -2   4  -7   46.62   14.85   1
   2  -4   7   35.66   11.99   1
   2   4  -7   73.50   26.41   1
  -2  -4   7   57.25   16.33   1
  -2  -4   8 1637.78   76.09   1
   2  -4   8 1499.80   86.97   1
  -2   4  -8 1516.22   87.67   1
   2   4  -8 1750.86   98.08   1
  -2   4  -9  972.83   71.23   1
  -2  -4   9 1000.78   59.06   1
   2  -4   9  985.48   72.85   1
   2   4  -9 1091.14   75.64   1
  -2   4 -10 2663.96  122.82   1
  -2  -4  10 2676.55  100.57   1
   2  -4  10 2654.22  122.35   1
   2   4 -10 2968.06  127.79   1
   2  -4  11  -26.98   12.33   1
  -2  -4  11    3.41    6.12   1
   2   4 -11    0.79   16.95   1
  -2   4 -11    2.64    8.81   1
  -2   4 -12 2345.40  129.82   1
  -2  -4  12 2780.62  133.77   1
   2   4 -12 2652.93  128.41   1
  -2   4 -13   57.37   22.02   1
   2   4 -13   33.60   11.29   1
  -2   4 -14  476.73   60.99   1
  -2   4 -15   31.90   18.52   1
  -2   5   0 5037.94  134.53   1
   2  -5   0 5129.32  137.21   1
   2  -5   1 3260.89  111.21   1
   2  -5  -1 3274.58  103.53   1
  -2   5  -1 3292.86  111.76   1
  -2   5   1 3260.36  110.27   1
  -2   5   2   46.64   14.49   1
  -2   5  -2   40.59   11.19   1
   2  -5   2   42.35   13.85   1
   2  -5  -2   50.25   12.90   1
  -2   5   345909.20  474.87   1
   2  -5   345905.50  436.00   1
  -2   5  -346176.50  486.26   1
   2  -5  -345992.90  371.30   1
  -2   5  -4    0.43    7.25   1
   2  -5   4   -3.56    8.46   1
   2  -5  -4   22.14   43.87   1
   2  -5   5 3667.28  131.84   1
   2  -5  -5 3782.09  105.18   1
  -2   5  -5 3722.30  138.42   1
  -2  -5   5 3955.92  143.63   1
  -2   5  -6 1246.93   80.74   1
  -2  -5   6 1322.08   75.72   1
   2  -5   6 1278.87   80.29   1
  -2   5  -7  153.09   29.16   1
   2  -5   7  155.58   27.22   1
  -2  -5   7  167.34   25.18   1
   2  -5   8  140.53   28.29   1
  -2  -5   8  138.78   24.06   1
   2   5  -8  125.18   30.00   1
  -2   5  -8  121.66   26.23   1
  -2   5  -9 9888.48  245.60   1
  -2  -5   910580.40  224.69   1
   2   5  -910858.80  272.67   1
   2  -5   9 9938.16  239.02   1
  -2   5 -10   14.63   14.05   1
   2  -5  10    5.90    8.43   1
   2   5 -10   -0.69   11.72   1
  -2  -5  10    1.50    7.22   1
  -2  -5  11  711.38   57.57   1
  -2   5 -11  745.48   71.53   1
   2  -5  11  716.27   69.96   1
   2   5 -11  815.31   74.40   1
   2  -5  12   82.13   28.84   1
   2   5 -12  189.68   37.48   1
  -2  -5  12  152.76   29.17   1
   2   5 -13   48.55   21.42   1
   2  -5  13   30.42   18.55   1
  -2   5 -13   12.06   13.30   1
  -2   5 -14  212.67   46.12   1
   2  -6   0 1975.20   94.66   1
  -2   6   0 1907.02   98.26   1
   2  -6   1   -1.05    7.14   1
  -2   6   1    6.15    8.98   1
  -2   6  -1   -1.23    7.50   1
   2  -6  -1   -5.74    6.02   1
   2  -6   211720.20  235.58   1
   2  -6  -211659.00  214.44   1
  -2   6  -211352.70  241.03   1
  -2   6   211589.60  242.29   1
   2  -6   3  392.54   43.81   1
  -2   6  -3  407.62   45.88   1
   2  -6  -3  379.39   37.57   1
   2  -6   4 3617.49  135.81   1
  -2   6  -4 3865.22  142.27   1
   2  -6  -4 3639.03  122.37   1
   2  -6   5  411.78   52.47   1
   2  -6  -5  381.55   37.26   1
  -2   6  -5  361.03   44.40   1
  -2   6  -6  846.92   73.19   1
  -2  -6   6  919.00   69.05   1
   2  -6   6  891.34   70.59   1
   2  -6   7  488.92   53.70   1
  -2   6  -7  467.19   58.59   1
  -2  -6   7  555.60   53.07   1
   2   6  -8 6820.71  250.10   1
  -2   6  -8 6552.52  220.26   1
  -2  -6   8 7073.17  199.40   1
   2  -6   8 6732.31  198.32   1
  -2  -6   9    5.84    8.48   1
   2  -6   9    5.55    7.17   1
  -2   6  -9   -2.94    9.89   1
   2   6 -10  252.34   47.44   1
  -2  -6  10  274.24   38.19   1
   2  -6  10  227.04   38.86   1
  -2   6 -10  201.39   43.65   1
   2  -6  11   55.77   21.09   1
  -2   6 -11   31.18   21.77   1
   2   6 -11   69.60   20.48   1
  -2  -6  11   66.30   20.38   1
   2  -6  12   14.87    9.33   1
  -2   6 -12   14.60   21.01   1
  -2  -6  12   14.57   12.33   1
   2   6 -12   42.53   22.60   1
  -2   6 -13  363.02   63.13   1
   2   6 -13  263.40   48.40   1
   2  -6  13  328.59   55.57   1
   2  -7   0  511.61   49.27   1
  -2   7   0  498.42   50.71   1
  -2   7  -1 4708.31  169.21   1
   2  -7   1 4763.60  162.58   1
   2  -7  -1 4791.32  151.36   1
  -2   7   1 4672.99  165.08   1
   2  -7  -2    6.73    7.69   1
   2  -7   2    1.70    8.07   1
  -2   7   2   14.96   10.05   1
  -2   7  -2    3.67    8.32   1
   2  -7   3  405.17   55.05   1
  -2   7  -3  381.27   49.63   1
   2  -7  -3  401.80   49.08   1
   2  -7   4  758.91   65.70   1
  -2   7  -4  759.70   71.06   1
   2  -7  -4  760.96   60.39   1
   2  -7   5 7068.47  206.26   1
  -2   7  -5 6920.23  211.00   1
  -2   7  -6   36.44   26.03   1
  -2  -7   6   42.50   22.87   1
  -2   7  -7  775.40   74.18   1
  -2  -7   7  805.40   71.80   1
   2  -7   7  712.79   68.94   1
   2  -7   8    3.37    9.75   1
  -2   7  -8   21.95   14.10   1
  -2  -7   8   42.67   20.95   1
  -2  -7   9  342.02   48.41   1
  -2   7  -9  317.79   50.84   1
   2  -7   9  314.90   47.70   1
   2   7 -10  775.09   89.91   1
  -2  -7  10  803.77   70.94   1
  -2   7 -10  615.01   74.74   1
   2  -7  10  701.64   71.93   1
   2   7 -11 2920.80  178.84   1
  -2  -7  11 2958.88  138.07   1
  -2   7 -11 3022.27  155.23   1
   2  -7  11 2858.71  148.28   1
   2   7 -12    0.50   19.90   1
  -2  -7  12   12.64   12.72   1
   2   7 -13   28.22   20.30   1
   2  -8   0 1047.08   75.48   1
  -2   8   0  927.12   79.03   1
   2  -8  -1  137.16   26.10   1
  -2   8  -1  160.19   30.87   1
   2  -8   1  141.32   29.12   1
  -2   8   1  151.25   32.38   1
   2  -8   2 4794.34  176.95   1
   2  -8  -2 4679.44  158.38   1
  -2   8  -2 4627.13  181.99   1
   2  -8   3  237.20   38.73   1
   2  -8  -3  241.99   34.54   1
  -2   8  -3  236.94   43.54   1
   2  -8   4 4282.73  169.40   1
  -2   8  -4 4088.81  172.13   1
   2  -8  -4 4017.06  153.18   1
  -2   8  -5   -3.98   11.75   1
   2  -8   5   22.49   15.32   1
   2  -8   6  328.95   47.02   1
  -2   8  -6  330.46   48.35   1
  -2  -8   7  208.03   36.36   1
  -2   8  -7  203.86   42.04   1
   2  -8   7  187.69   39.09   1
   2  -8   8 1736.60  115.35   1
  -2  -8   8 1969.06  114.10   1
  -2   8  -8 1796.29  127.52   1
  -2  -8   9   66.30   24.66   1
   2  -8   9   59.50   22.33   1
  -2  -8  10 1202.31   92.03   1
  -2   8 -10 1026.02  103.20   1
   2  -8  10 1148.42   95.06   1
  -2  -8  11   32.08   19.36   1
   2   8 -12    4.59   19.37   1
  -2  -8  12   10.39    8.62   1
   2   8 -13  106.67   43.51   1
  -2   9   0 3979.09  180.95   1
   2  -9   0 3961.25  157.17   1
   2  -9  -1   85.75   24.67   1
  -2   9   1   68.10   24.91   1
   2  -9   1   98.44   26.63   1
  -2   9  -1   64.84   21.94   1
  -2   9  -2   60.61   19.73   1
   2  -9   2   51.15   19.92   1
   2  -9  -2   73.85   21.55   1
  -2   9  -3  244.11   48.11   1
   2  -9   3  239.39   43.10   1
   2  -9  -3  235.24   38.58   1
   2  -9   4   73.78   23.56   1
  -2   9  -4   76.66   29.17   1
   2  -9   5  194.00   38.99   1
  -2   9  -5  184.92   41.70   1
   2  -9   6 1530.39  108.74   1
  -2   9  -6 1452.18  114.24   1
  -2  -9   7   17.97   16.73   1
  -2   9  -7   15.67   15.19   1
   2  -9   7    6.06   12.54   1
  -2   9  -8  103.24   38.51   1
   2  -9   8   59.04   21.52   1
  -2  -9   8   14.63   10.53   1
  -2  -9   9   36.59   17.93   1
  -2  -9  10  202.33   41.41   1
  -2  -9  11   71.00   24.29   1
  -2  10   0 3413.95  189.89   1
   2 -10   0 3788.44  163.32   1
   2 -10  -1   84.18   26.74   1
  -2  10  -1   49.04   20.58   1
   2 -10   1   64.34   20.82   1
   2 -10   2 1346.27  109.67   1
   2 -10  -2 1337.79   95.19   1
  -2  10  -2 1316.21  107.94   1
   2 -10   3  334.10   53.71   1
  -2  10  -3  325.51   52.46   1
   2 -10   4 1947.16  125.50   1
  -2  10  -4 2089.67  140.71   1
   2 -10   5  468.97   65.63   1
  -2  10  -5  467.12   71.58   1
   2 -10   6 2195.18  136.70   1
  -2  10  -6 2293.95  161.75   1
  -2 -10   8  468.11   65.19   1
  -2  11   0   56.49   33.49   1
   2 -11   0   71.86   23.40   1
  -2  11  -1  337.98   61.36   1
   2 -11  -1  463.29   64.48   1
   2 -11   1  392.08   54.93   1
  -2  11  -2   16.32   18.65   1
   2 -11   2    6.19   15.90   1
   2 -11   3 3961.13  199.80   1
  -2  11  -3 3931.66  207.73   1
   2 -12   0 3258.55  174.62   1
  -3  -1   6 2110.99   59.34   1
  -3  -1   7 2583.59   64.76   1
  -3  -1   8   47.56    8.85   1
  -3  -1   9 2225.42   58.18   1
  -3  -1  10  137.78   15.69   1
  -3   2   075746.20  433.17   1
   3  -2   075834.80  425.20   1
  -3   2   1   19.93    6.20   1
   3  -2   1   16.08    6.39   1
   3  -2  -1   25.23    6.50   1
  -3   2  -1   21.02    8.08   1
   3  -2   2 1801.97   75.27   1
  -3   2  -2 1923.46   77.99   1
   3  -2  -2 1800.08   54.48   1
  -3   2   2 1861.66   54.93   1
  -3   2   3 2057.74   51.57   1
   3  -2   3 2206.70   86.43   1
  -3   2  -3 2083.36   86.49   1
  -3   2   4 5438.38   73.90   1
  -3   2  -4 5774.63  150.09   1
  -3   2  -5  617.63   52.07   1
  -3  -2   622955.80  245.20   1
  -3  -2   7  689.20   39.54   1
  -3  -2   8  837.42   43.37   1
  -3  -2   9  108.58   15.69   1
  -3  -2  10 3273.96   85.63   1
  -3  -2  11  171.68   20.33   1
  -3   3   0 4401.94  107.33   1
   3  -3   0 4447.89  104.94   1
   3  -3   1  691.42   43.99   1
  -3   3   1  709.10   39.33   1
   3  -3  -1  720.61   37.85   1
  -3   3  -1  702.66   46.06   1
   3  -3   2  110.16   19.89   1
  -3   3   2  117.89   16.22   1
  -3   3  -2  115.13   20.40   1
   3  -3  -2  113.79   14.94   1
   3  -3   3  117.22   21.00   1
  -3   3   3  124.06   15.67   1
  -3   3  -3  126.00   22.51   1
   3  -3  -3  125.11   14.36   1
   3  -3   4   13.22    9.29   1
   3  -3  -4   16.40    5.00   1
  -3   3   4   17.58    5.87   1
  -3   3  -4   12.69    9.30   1
   3  -3   5   34.51   13.02   1
   3  -3  -5   46.48    7.04   1
  -3   3  -5   47.58   16.17   1
  -3   3  -6 1331.69   80.83   1
   3  -3   6 1358.27   79.22   1
  -3  -3   6 1372.69   67.59   1
  -3   3  -7 1880.09  102.71   1
  -3  -3   7 1824.44   73.76   1
   3  -3   7 1868.58   98.25   1
  -3   3  -8  120.98   27.81   1
  -3  -3   8  159.52   22.29   1
  -3  -3   9   32.30   11.07   1
  -3   3  -9  290.86   50.01   1
  -3   3 -10 1573.46  238.38   1
  -3  -3  10   84.95   16.38   1
  -3  -3  11  142.55   21.11   1
  -3   3 -11   92.77   27.90   1
  -3   3 -12   99.23   32.09   1
  -3   3 -13  658.36   73.25   1
  -3   3 -14   -1.63    9.53   1
  -3   4   0    2.67    4.44   1
   3  -4   0    2.62    4.53   1
   3  -4   1 1167.86   64.16   1
   3  -4  -1 1223.34   56.95   1
  -3   4   1 1312.20   60.90   1
  -3   4  -1 1130.55   63.45   1
   3  -4  -2  894.31   47.46   1
  -3   4  -2  872.32   58.46   1
  -3   4   2  833.58   48.34   1
   3  -4   2  877.95   56.30   1
  -3   4   3   37.22   10.24   1
   3  -4   3   35.42   12.48   1
   3  -4  -3   34.73    9.21   1
  -3   4  -3   33.03   12.37   1
  -3   4  -4 2397.89  106.52   1
   3  -4  -4 2594.88   67.81   1
  -3   4   4 2571.32   74.84   1
   3  -4   4 2378.99  103.05   1
  -3   4  -5  432.46   48.98   1
   3  -4  -5  488.84   27.96   1
   3  -4   5  434.14   46.93   1
   3  -4  -6    3.14    3.51   1
   3  -4   6   28.27   11.79   1
  -3   4  -6    8.63   14.27   1
  -3   4  -7  592.16   62.99   1
   3  -4  -7  499.69   25.73   1
  -3  -4   7  642.11   50.27   1
   3  -4   7  585.13   57.24   1
   3  -4   8   89.64   22.26   1
   3  -4  -8   68.95    9.33   1
  -3   4  -8   85.07   23.29   1
  -3  -4   8  116.93   19.70   1
   3  -4   9  137.12   27.81   1
  -3   4  -9  126.36   28.56   1
  -3  -4   9  137.06   23.26   1
  -3   4 -10 1252.78   94.67   1
   3  -4  10 1344.25   93.68   1
  -3  -4  10 1380.08   69.54   1
  -3  -4  11  172.67   27.89   1
  -3   4 -11  144.21   37.93   1
  -3   4 -12   22.64   19.50   1
  -3   4 -13  113.74   31.63   1
   3  -5   0  264.27   49.46   1
  -3   5   0  277.18   37.92   1
   3  -5  -196986.20  624.71   1
  -3   5   197064.70  642.68   1
   3  -5  -2  455.76   42.04   1
   3  -5   2  505.78   46.58   1
  -3   5  -2  483.49   45.83   1
  -3   5   2  426.20   40.33   1
   3  -5   3 7636.20  187.61   1
   3  -5  -3 7859.43  150.92   1
  -3   5  -3 7703.55  194.93   1
  -3   5   3 7742.90  165.88   1
  -3   5  -4  749.10   64.16   1
  -3   5   4  800.50   54.54   1
   3  -5   4  742.59   61.26   1
   3  -5   5 1518.98   91.66   1
   3  -5  -5 1524.65   61.93   1
  -3   5  -5 1548.11   99.32   1
   3  -5   6   30.27   14.65   1
   3  -5  -6   33.96    8.88   1
  -3   5  -6   34.82   17.76   1
   3  -5   7 5978.43  185.35   1
  -3   5  -7 5880.42  185.80   1
   3  -5  -7 5681.87  103.87   1
  -3  -5   7 5810.29  167.05   1
  -3   5  -8  337.65   45.92   1
   3  -5  -8  314.80   24.57   1
  -3  -5   8  360.93   40.49   1
   3  -5   8  332.81   44.92   1
  -3   5  -9 1546.50  101.89   1
  -3  -5   9 1689.62   91.43   1
   3  -5   9 1566.59  101.68   1
   3  -5  10  254.67   42.97   1
  -3  -5  10  267.64   34.47   1
   3  -5 -10  158.17   15.58   1
  -3   5 -10  240.65   43.70   1
  -3  -5  11  502.72   45.65   1
  -3   5 -11  457.28   60.19   1
   3  -5  11  466.81   57.49   1
   3  -5  12   71.78   28.77   1
  -3   5 -12   86.85   75.75   1
   3  -6   025278.20  319.18   1
  -3   6   025113.20  339.16   1
   3  -6  -1  412.55   48.75   1
   3  -6   1  560.18   50.01   1
  -3   6  -1  559.17   50.92   1
  -3   6   1  455.68   49.21   1
   3  -6   2  383.70   42.84   1
  -3   6   2  308.31   41.88   1
   3  -6  -2  264.03   37.74   1
  -3   6  -2  374.89   46.26   1
   3  -6   3 1212.89   78.84   1
   3  -6  -3 1238.27   68.18   1
  -3   6  -3 1195.88   85.89   1
  -3   6   3 1256.51   71.91   1
   3  -6   4  292.52   41.40   1
  -3   6   4  300.05   38.60   1
  -3   6  -4  312.62   44.36   1
   3  -6  -4  341.92   35.28   1
   3  -6   5  645.80   62.83   1
  -3   6  -5  667.00   64.85   1
   3  -6  -5  719.37   45.70   1
   3  -6   611363.00  254.88   1
  -3   6  -611681.20  273.06   1
   3  -6  -611467.00  181.64   1
  -3   6  -7  100.73   26.97   1
   3  -6   7  100.02   26.22   1
  -3  -6   7   92.49   25.04   1
   3  -6  -7   97.68   16.35   1
  -3   6  -8  500.30   59.89   1
   3  -6  -8  528.80   36.36   1
  -3  -6   8  585.45   56.73   1
   3  -6   8  493.64   58.09   1
  -3   6  -9  431.13   74.53   1
  -3  -6   9  423.86   45.62   1
   3  -6   9  354.47   52.93   1
   3  -6  -9  350.58   28.59   1
  -3   6 -10  131.96   37.43   1
   3  -6  10  156.44   34.10   1
  -3  -6  10  181.56   32.41   1
   3  -6 -10  148.36   18.93   1
   3  -6  11  335.41   52.92   1
  -3   6 -11  311.51   51.77   1
  -3  -6  11  289.63   42.05   1
   3  -7   0 3858.95  138.83   1
  -3   7   0 3602.76  139.21   1
   3  -7  -1   -2.02   10.41   1
  -3   7  -1    6.40    7.20   1
   3  -7   1   10.50    8.20   1
  -3   7   1   -7.54   11.09   1
   3  -7   2 1410.65   86.91   1
   3  -7  -2 1429.72   81.73   1
  -3   7  -2 1472.58   91.30   1
  -3   7   2 1579.17   83.66   1
   3  -7   3 1095.94   80.09   1
   3  -7  -3 1117.38   72.23   1
  -3   7  -3 1078.71   80.59   1
  -3   7   3 1144.54   79.94   1
   3  -7   4   68.91   21.42   1
   3  -7  -4   66.63   16.60   1
  -3   7  -4   80.47   22.96   1
   3  -7   5  168.25   33.96   1
  -3   7  -5  163.42   33.75   1
   3  -7  -5  168.31   24.81   1
   3  -7   6 1466.70   99.85   1
  -3   7  -6 1475.13  110.51   1
   3  -7  -6 1533.53   74.10   1
  -3   7  -7   -3.73   10.39   1
   3  -7  -7   13.76    9.39   1
   3  -7   7   17.03   16.41   1
  -3   7  -8 1139.32   99.75   1
   3  -7  -8  934.04   49.17   1
  -3  -7   8 1221.68   87.78   1
   3  -7   8 1095.16   87.91   1
   3  -7   9  281.15   49.91   1
   3  -7  -9  185.68   25.44   1
  -3   7  -9  208.24   50.02   1
  -3  -7   9  302.18   42.88   1
   3  -7  10  114.31   31.92   1
   3  -7 -10   95.86   18.40   1
  -3   7 -10  129.60   38.53   1
  -3  -7  10   87.98   25.72   1
  -3  -7  11  328.79   44.03   1
   3  -8   0 2091.05  107.56   1
  -3   8   0 2091.25  118.75   1
   3  -8   1  378.31   45.88   1
  -3   8   1  376.82   46.22   1
   3  -8  -1  465.85   52.45   1
  -3   8  -1  347.53   45.91   1
   3  -8   2  616.31   59.92   1
   3  -8  -2  574.18   54.60   1
  -3   8  -2  621.27   62.83   1
  -3   8   2  739.02   72.72   1
  -3   8   3 7593.61  232.66   1
   3  -8   3 7971.13  225.18   1
   3  -8  -3 7819.79  199.20   1
  -3   8  -3 7896.01  241.76   1
   3  -8   4 1077.55   87.14   1
   3  -8  -4 1194.61   72.17   1
  -3   8  -4 1152.74   93.39   1
   3  -8  -5 1253.80   74.77   1
  -3   8  -5 1159.33   95.20   1
   3  -8   5 1109.38   88.58   1
   3  -8   6  963.94   84.29   1
   3  -8  -6 1099.08   71.44   1
   3  -8  -7  134.35   24.45   1
   3  -8   7  128.35   32.82   1
  -3   8  -7  128.72   34.62   1
   3  -8   8  268.51   44.68   1
   3  -8  -8  262.25   32.22   1
  -3   8  -8  284.10   50.38   1
  -3  -8   9 1670.55  108.97   1
   3  -8   9 1469.33  109.56   1
  -3  -8  10  740.23   78.13   1
  -3  -8  11  280.84   43.64   1
   3  -9   0 3981.31  160.49   1
  -3   9   0 4098.04  169.48   1
  -3   9   1 4186.02  173.83   1
   3  -9   1 4122.07  162.86   1
   3  -9  -1 4168.14  166.39   1
  -3   9  -1 3972.04  179.24   1
   3  -9   2 1012.32   83.54   1
  -3   9  -2  947.67   86.89   1
  -3   9   3 2559.79  153.84   1
   3  -9   3 2592.01  133.73   1
   3  -9  -3 2627.19  118.85   1
  -3   9  -3 2451.21  139.75   1
  -3   9  -4   29.26   18.24   1
   3  -9  -4   17.04    7.23   1
   3  -9   4   25.66   16.79   1
   3  -9   5 1771.58  118.96   1
   3  -9  -5 1788.63   96.52   1
  -3   9  -5 1785.79  122.96   1
   3  -9   6 1900.66  125.24   1
   3  -9  -6 1851.85  100.51   1
  -3   9  -6 1867.63  133.82   1
   3  -9   7 3723.69  178.64   1
  -3   9  -7 4115.98  201.04   1
   3  -9  -7 3840.90  140.61   1
  -3  -9  10  120.16   32.30   1
  -3  -9  11  494.94   65.56   1
  -3  -9  12  272.70   56.78   1
   3 -10   0 2266.56  130.23   1
  -3  10   0 2116.17  132.13   1
   3 -10   1  270.42   43.43   1
  -3  10   1  265.70   48.40   1
  -3  10  -1  296.53   47.88   1
   3 -10  -1  264.42   44.93   1
  -3  10  -2   24.49   17.12   1
   3 -10   2   35.13   18.00   1
   3 -10  -2   36.84   16.51   1
  -3  10   2   46.90   22.35   1
   3 -10   3  989.42   88.00   1
   3 -10  -3  980.24   77.15   1
  -3  10  -3  950.99   98.13   1
  -3  10  -4   -4.93   16.41   1
   3 -10  -4    7.31    9.66   1
   3 -10   4   20.14   11.79   1
   3 -10   5  584.03   70.62   1
   3 -10  -5  615.38   61.12   1
  -3  10  -5  627.25   78.80   1
   3 -10  -6 1550.05   97.78   1
   3 -11   0 1377.37  112.77   1
  -3  11   0 1385.72  120.35   1
   3 -11   1  822.33   81.93   1
   3 -11  -1  757.94   82.99   1
  -3  11   1  657.21   83.77   1
  -3  11  -1  756.84   87.49   1
   3 -11   2  668.39   73.74   1
   3 -11  -2  622.81   67.39   1
  -3  11  -2  663.71   80.34   1
   3 -11   3  185.34   41.83   1
   3 -11  -3   27.89   42.07   1
   3 -11  -4   69.92   69.36   1
   3 -11  -5   62.38   64.48   1
   3 -12  -1  565.39   76.14   1
  -3  12   1  622.73   96.45   1
   3 -12  -2 1343.54  105.20   1
   3 -12  -3   36.54   55.12   1
   3 -12  -4  164.43  112.41   1
  -4  -1   7   54.06   10.49   1
  -4  -1   8   -1.54    3.36   1
  -4  -1   9 5926.30   92.37   1
  -4  -1  10   66.40    9.92   1
  -4   2   1  250.35   29.90   1
  -4   2   2 5917.11  119.26   1
  -4   2   3  168.83   19.35   1
  -4   2   4  271.93   20.38   1
  -4   2   5  170.45   13.62   1
  -4  -2   7   67.27   15.70   1
  -4  -2   8 5152.16  110.75   1
  -4  -2   9   60.77   12.52   1
  -4  -2  10  310.12   25.45   1
   4  -3   0  362.04   36.84   1
  -4   3   0  372.98   37.51   1
  -4   3   1 9231.32  169.27   1
   4  -3  -1 9287.15  163.38   1
   4  -3   1 9193.12  184.26   1
  -4   3  -1 9185.02  185.69   1
   4  -3   2   19.23   10.58   1
   4  -3  -2   18.28    9.62   1
  -4   3  -2   16.10    8.60   1
  -4   3   2   12.73    6.10   1
  -4   3   3 6070.08  117.18   1
   4  -3  -3 6075.85  114.71   1
   4  -3   3 5959.24  160.77   1
  -4   3  -3 6257.98  167.88   1
  -4   3   4  311.75   23.74   1
   4  -3   4  299.65   39.48   1
  -4   3  -4  279.22   39.14   1
  -4   3   512387.70  136.60   1
   4  -3   512467.20  248.10   1
  -4   3  -512670.30  259.04   1
  -4   3  -6   84.18   22.03   1
  -4   3   6   80.27   11.48   1
  -4  -3   8   68.83   15.59   1
  -4  -3   9  394.76   33.36   1
  -4  -3  10  256.45   27.04   1
  -4   4   0 2057.02   92.33   1
   4  -4   0 2123.90   89.94   1
   4  -4   1   19.03   12.32   1
   4  -4  -1    1.10    3.94   1
  -4   4  -1   10.78    7.92   1
  -4   4   1    2.54    7.78   1
  -4   4  -210407.50  216.90   1
  -4   4   210386.70  179.14   1
   4  -4   210313.70  207.67   1
   4  -4  -210104.60  166.87   1
  -4   4  -3 3863.40  141.06   1
  -4   4   3 3875.49  104.01   1
   4  -4   3 3758.60  133.51   1
   4  -4  -3 3810.72   96.44   1
  -4   4  -4 3694.67  142.54   1
  -4   4   4 3737.27   93.31   1
   4  -4   4 3618.06  136.97   1
   4  -4  -4 3810.72   87.76   1
   4  -4   5    5.77    6.96   1
   4  -4  -5    9.27    4.89   1
  -4   4  -5   10.22   10.63   1
  -4   4   5    8.49    6.20   1
  -4   4  -6  572.13   62.32   1
   4  -4   6  587.65   60.25   1
   4  -4  -6  567.81   28.94   1
   4  -4   7   -8.12    9.07   1
   4  -4  -7    6.80    3.80   1
  -4   4  -7    1.62   12.83   1
  -4   4  -8 5546.38  198.09   1
  -4  -4   8 5525.57  155.67   1
   4  -4   8 5392.33  184.75   1
  -4   4  -9  883.04   80.28   1
  -4  -4   9  969.50   60.11   1
  -4   4 -10  302.42   52.25   1
  -4  -4  10  322.97   36.78   1
  -4   4 -11   39.83   19.36   1
  -4   4 -12   60.01   30.14   1
  -4   5   0  421.73   46.38   1
   4  -5   0  346.63   44.74   1
   4  -5  -1  552.39   53.02   1
  -4   5  -1  753.21   59.69   1
  -4   5   1  530.27   53.84   1
   4  -5   1  765.74   57.82   1
   4  -5  -2  230.51   28.54   1
   4  -5   2  210.36   32.46   1
  -4   5  -2  223.18   33.49   1
  -4   5   2  210.24   30.15   1
  -4   5   3   -3.93    7.37   1
  -4   5  -3   -0.84    8.29   1
   4  -5   3   -8.75    9.72   1
   4  -5  -3   -3.64    5.96   1
   4  -5   4   24.53   19.12   1
  -4   5   4   30.27   10.98   1
   4  -5  -4   31.72   10.39   1
  -4   5  -4   35.01   14.26   1
   4  -5  -5 1596.58   60.10   1
  -4   5  -5 1481.92   99.22   1
   4  -5   5 1434.57   92.99   1
  -4   5   5 1661.44   69.17   1
   4  -5  -6  186.40   19.20   1
   4  -5   6  178.00   33.88   1
  -4   5  -6  183.29   35.35   1
   4  -5   7   45.03   18.22   1
   4  -5  -7   46.95    9.52   1
  -4   5  -7   49.63   20.55   1
   4  -5  -8  195.92   17.01   1
   4  -5   8  198.16   37.21   1
  -4   5  -8  215.89   40.90   1
  -4  -5   9   -7.06    8.82   1
   4  -5   9    3.93    9.65   1
   4  -5  -9    1.55    2.11   1
  -4   5  -9    8.98   12.55   1
   4  -5  10   19.14   12.42   1
  -4  -5  10   -5.92    9.00   1
  -4   5 -10   -2.21   10.05   1
  -4   5 -11  879.99   98.06   1
  -4  -5  11  843.41   63.54   1
   4  -6   0 2236.77  102.04   1
  -4   6   0 2342.79  110.70   1
   4  -6  -1  111.32   42.76   1
  -4   6  -1    0.93    7.07   1
  -4   6   1  120.02   39.10   1
   4  -6   1   -4.13    8.23   1
  -4   6   2    9.72    9.91   1
  -4   6  -2    7.18   11.10   1
   4  -6   2    8.15    7.00   1
   4  -6  -2    2.87    7.58   1
   4  -6  -3  755.82   50.46   1
  -4   6  -3  671.34   63.65   1
  -4   6   3  718.58   53.15   1
   4  -6   3  674.24   59.49   1
  -4   6  -4   26.55   14.47   1
  -4   6   4   42.08   14.22   1
   4  -6   4   34.49   16.29   1
   4  -6  -4   31.74   10.41   1
  -4   6  -5    3.23    8.92   1
  -4   6   5    0.64    8.79   1
   4  -6   5   -0.22    8.14   1
   4  -6  -5   -0.59    4.75   1
   4  -6  -6 2131.80   73.98   1
  -4   6  -6 2095.05  122.15   1
   4  -6   6 2101.17  118.63   1
   4  -6   7    1.36    9.51   1
  -4   6  -7   -0.58    7.82   1
   4  -6   8  -26.74   19.34   1
  -4   6  -8   12.41   14.01   1
   4  -6  -9  169.35   17.44   1
   4  -6   9  184.08   37.88   1
  -4  -6   9  229.56   35.42   1
  -4   6  -9  176.00   39.76   1
   4  -6  10    6.87   10.48   1
  -4  -6  10   21.46   11.99   1
  -4  -6  11   54.78   25.14   1
   4  -7   0  -10.83   12.00   1
  -4   7   0   -4.02   10.15   1
  -4   7   1   56.65   15.56   1
   4  -7   1   64.10   21.27   1
  -4   7  -1   53.39   19.23   1
   4  -7  -1   66.23   19.13   1
   4  -7   2  281.92   41.00   1
   4  -7  -2  275.01   34.07   1
  -4   7  -2  265.34   42.84   1
  -4   7   2  295.70   37.50   1
   4  -7   3 9655.10  240.87   1
   4  -7  -3 9796.72  194.82   1
  -4   7  -3 9185.48  257.34   1
  -4   7   3 9546.61  225.06   1
   4  -7  -4  161.59   28.55   1
  -4   7  -4  144.62   32.46   1
   4  -7   4  146.39   30.75   1
  -4   7   4  163.02   28.79   1
   4  -7  -5   88.84   17.67   1
  -4   7   5   79.38   24.90   1
  -4   7  -5   77.95   26.30   1
   4  -7   5   66.62   21.90   1
   4  -7  -6    0.60    5.66   1
  -4   7  -6    0.85    9.66   1
   4  -7   6    5.02    7.50   1
   4  -7  -7   26.42   10.82   1
  -4   7  -7   28.36   19.57   1
   4  -7   7   24.83   14.90   1
  -4   7  -8  153.23   37.25   1
   4  -7   8  156.10   35.69   1
   4  -7  -8  258.44   29.44   1
   4  -7  -9 4213.55  100.61   1
   4  -7   9 4451.89  193.47   1
  -4  -7  10   17.38   16.21   1
  -4  -7  11   12.09   14.61   1
   4  -8   0 9300.20  229.06   1
  -4   8   0 9119.31  239.50   1
  -4   8  -1   -0.59   11.76   1
   4  -8  -1   -8.19    8.91   1
  -4   8   1    5.88   11.66   1
   4  -8   1   11.20   10.50   1
   4  -8   2   24.76   15.50   1
  -4   8  -2   16.79   10.19   1
  -4   8   2   11.13    8.14   1
   4  -8  -2   18.66   13.93   1
   4  -8  -3  177.23   29.01   1
  -4   8   3  191.60   31.40   1
   4  -8   3  181.65   35.53   1
  -4   8  -3  190.18   36.67   1
  -4   8   4  504.06   55.56   1
   4  -8   4  427.64   57.33   1
   4  -8  -4  529.52   48.15   1
  -4   8  -4  440.50   59.41   1
   4  -8  -5   65.61   16.32   1
   4  -8   5   53.99   20.75   1
  -4   8  -5   38.80   17.45   1
   4  -8  -6 5212.84  141.92   1
  -4   8  -6 4954.27  220.18   1
   4  -8   6 4979.38  194.48   1
   4  -8   7   34.39   21.80   1
  -4   8  -7   48.73   27.16   1
   4  -8  -8  227.93   28.34   1
   4  -8  -9   83.73   17.23   1
  -4  -8  11   67.05   22.44   1
   4  -9   0 1801.56  104.59   1
  -4   9   0 1570.34  105.44   1
   4  -9   1  743.30   70.02   1
   4  -9  -1  805.11   68.31   1
  -4   9  -1  748.07   73.12   1
  -4   9   1  768.96   74.10   1
   4  -9  -2   16.93    8.46   1
  -4   9  -2    5.51   12.61   1
  -4   9   2   18.84   12.48   1
   4  -9   2   19.52   13.70   1
   4  -9   3 5790.33  208.45   1
   4  -9  -3 6114.25  181.84   1
  -4   9  -3 5955.24  222.20   1
  -4   9   3 5824.97  202.28   1
   4  -9  -4  113.95   24.70   1
  -4   9   4   76.48   26.50   1
   4  -9   4   89.20   26.64   1
  -4   9  -4  101.59   28.96   1
   4  -9   5 2695.29  152.15   1
   4  -9  -5 2810.45  117.72   1
  -4   9  -5 2776.22  153.83   1
   4  -9   6 1078.67   99.05   1
   4  -9  -6 1003.13   70.86   1
   4  -9  -7  166.90   30.61   1
   4  -9  -8   15.28   10.00   1
   4 -10   0 2976.24  144.21   1
  -4  10   0 2744.99  155.50   1
   4 -10  -1   -1.57   10.09   1
  -4  10   1   -0.26   10.34   1
  -4  10  -1    0.47   18.66   1
   4 -10   1   29.44   27.05   1
   4 -10   2 4961.90  196.27   1
   4 -10  -2 5236.05  183.45   1
  -4  10  -2 4760.02  206.04   1
  -4  10   2 4773.32  196.67   1
   4 -10  -3  322.24   44.56   1
  -4  10  -3  311.57   52.80   1
  -4  10   3  282.65   46.79   1
   4 -10   3  299.12   50.93   1
   4 -10   4 1609.06  120.91   1
   4 -10  -4 1605.93   98.52   1
   4 -10  -5   49.63   17.21   1
   4 -10  -6  981.42   76.50   1
   4 -10  -7   30.92   16.70   1
   4 -10  -8 3328.67  136.33   1
   4 -11   0  127.10   32.38   1
  -4  11   0  117.02   31.42   1
   4 -11   1 2241.25  137.37   1
   4 -11  -1 2345.83  137.21   1
  -4  11   1 2081.40  139.41   1
  -4  11  -1 2126.23  146.38   1
   4 -11  -2   18.05   29.86   1
  -4  11   2   18.49   34.84   1
   4 -11  -3   11.27   17.42   1
  -4  11   3    1.83   14.56   1
   4 -11  -4    8.17   33.52   1
   4 -11  -5 2401.76  131.54   1
   4 -11  -6   53.63   27.66   1
   4 -11  -7  767.89   70.79   1
   4 -11  -8   40.74   14.99   1
   4 -12  -1  318.46   55.75   1
   4 -12  -2  103.51   30.34   1
  -4  12   2    4.75   37.22   1
   4 -12  -3   34.22   59.32   1
   4 -12  -4   22.01   46.73   1
   4 -12  -5   63.54   22.83   1
   4 -12  -6  642.45   72.71   1
   4 -12  -7  214.47   41.08   1
   4 -13  -5  600.40   75.72   1
   4 -13  -6  185.71   44.22   1
  -5   0   8    1.50    2.33   1
  -5   1   7  676.14   25.31   1
  -5  -1   9 3934.04   78.91   1
  -5   2   4 4862.28  103.29   1
  -5   2   5  551.04   30.22   1
  -5   2   6 1914.09   49.58   1
  -5  -2   9  650.45   38.54   1
  -5  -2  10  339.93   28.30   1
  -5   3   0  106.72   29.04   1
  -5   3  -1  600.30   56.02   1
  -5   3   1  489.90   49.59   1
  -5   3   2  542.04   46.07   1
  -5   3   3 6561.77  135.43   1
  -5   3   4  170.31   22.53   1
  -5   3   5  261.49   21.93   1
  -5   3   6   75.50   11.71   1
  -5   3   7  413.35   21.36   1
  -5  -3   9 1606.35   73.23   1
  -5  -3  10   64.32   23.36   1
  -5   4   0 1705.15   93.48   1
   5  -4   0 1451.16   89.65   1
   5  -4   1   25.34   13.01   1
   5  -4  -1   12.80   11.31   1
  -5   4  -1   24.22   12.22   1
  -5   4   1   18.95   13.71   1
  -5   4  -2  920.45   72.11   1
  -5   4   2  854.34   57.65   1
   5  -4   2  948.35   70.86   1
   5  -4  -2  830.43   55.78   1
   5  -4  -3   30.02    6.63   1
   5  -4   3   55.66   16.94   1
  -5   4  -3   25.56   12.49   1
  -5   4   3   29.30    8.88   1
   5  -4   4 1755.80   99.74   1
  -5   4   4 1901.71   72.36   1
   5  -4  -4 2075.32   72.62   1
  -5   4  -4 1789.08  105.69   1
   5  -4   5   61.65   25.21   1
  -5   4  -5   37.85   17.99   1
  -5   4   5   38.88   10.43   1
  -5   4  -6  610.68   66.55   1
  -5   4   6  610.71   34.86   1
  -5   4   7   26.58    8.96   1
  -5  -4  10 1129.66   67.16   1
  -5   5   0  248.25   35.12   1
   5  -5   0  206.27   30.95   1
  -5   5  -1 1362.71   87.98   1
  -5   5   1 1590.16   81.51   1
   5  -5   1 1364.97   82.33   1
   5  -5  -1 1396.35   77.33   1
  -5   5   2  151.69   24.65   1
   5  -5   2  131.85   27.58   1
   5  -5  -2  140.84   23.34   1
  -5   5  -2  133.33   29.40   1
  -5   5  -3 9723.55  244.24   1
  -5   5   3 9724.49  186.21   1
   5  -5   3 9738.03  233.55   1
   5  -5  -3 9680.36  174.93   1
  -5   5  -4  312.49   47.83   1
  -5   5   4  320.88   31.99   1
   5  -5   4  311.85   45.01   1
   5  -5  -4  334.02   31.53   1
  -5   5  -5  472.13   60.69   1
  -5   5   5  450.46   36.01   1
   5  -5   5  464.93   55.89   1
   5  -5  -5  452.71   33.15   1
  -5   5  -6  271.53   46.64   1
   5  -5   6  287.46   46.58   1
  -5   5   6  304.16   29.30   1
   5  -5  -6  283.37   25.28   1
  -5   5  -7 2023.35  128.87   1
   5  -5   7 1911.68  119.89   1
   5  -5  -7 2012.49   60.65   1
   5  -5   8   98.75   30.53   1
  -5   5  -8   75.77   27.74   1
  -5   5  -9 2696.31  158.33   1
  -5  -5  10  192.96   31.24   1
  -5   6   0 4953.88  161.32   1
   5  -6   0 4717.29  149.27   1
  -5   6  -1  234.65   36.88   1
   5  -6   1  213.59   34.00   1
  -5   6   1  245.51   33.43   1
   5  -6  -1  208.57   31.03   1
  -5   6   2  249.15   34.74   1
   5  -6   2  243.22   37.64   1
  -5   6  -2  227.04   37.28   1
   5  -6  -2  242.22   31.64   1
  -5   6  -3  824.00   75.18   1
  -5   6   3  867.13   58.50   1
   5  -6   3  855.36   72.47   1
   5  -6  -3  867.37   55.50   1
  -5   6  -4  881.26   81.26   1
  -5   6   4  948.01   60.82   1
   5  -6  -4  997.80   56.26   1
  -5   6  -5  277.71   48.14   1
  -5   6   5  332.87   36.70   1
   5  -6   5  281.27   44.99   1
   5  -6  -5  326.94   31.21   1
  -5   6  -6 2564.66  143.00   1
   5  -6   6 2483.41  136.61   1
   5  -6  -6 2611.93   82.44   1
  -5   6   6 2458.32   99.07   1
   5  -6   7   27.58   18.06   1
   5  -6  -7   32.78    8.86   1
  -5   6  -7   31.99   20.18   1
   5  -6   8   41.21   22.49   1
   5  -6  -8   36.19    9.13   1
  -5   6  -8   28.06   18.08   1
   5  -6  -9  227.13   19.13   1
   5  -7   0 5116.16  161.38   1
  -5   7   0 5055.05  178.29   1
  -5   7  -1   65.74   22.70   1
   5  -7   1   51.25   17.26   1
   5  -7  -1   58.80   17.58   1
  -5   7   1   66.82   19.40   1
   5  -7  -2  579.42   52.11   1
  -5   7  -2  555.29   62.49   1
  -5   7   2  691.12   61.64   1
   5  -7   2  570.04   59.19   1
   5  -7  -3 1707.73   84.84   1
  -5   7  -3 1708.92  113.23   1
  -5   7   3 1692.15   89.92   1
   5  -7   3 1709.74  104.11   1
  -5   7  -4   22.96   15.78   1
   5  -7   4   21.62   15.18   1
   5  -7  -4   12.94   10.84   1
  -5   7   4   37.40   15.46   1
  -5   7  -5   13.96   11.19   1
   5  -7   5    7.36   11.29   1
  -5   7   5   27.17   12.53   1
   5  -7  -5   18.09    8.25   1
  -5   7   6 2401.09  110.26   1
   5  -7  -6 2519.22   91.62   1
  -5   7  -6 2515.62  148.52   1
   5  -7   6 2362.85  136.18   1
  -5   7  -7   87.18   32.90   1
   5  -7   7   60.78   24.33   1
   5  -7  -7   38.68   11.74   1
   5  -7  -8  436.46   32.90   1
   5  -8   0 4043.21  157.48   1
  -5   8   0 3945.09  157.10   1
  -5   8   1  268.85   40.10   1
   5  -8  -1  270.99   38.35   1
   5  -8   1  248.29   41.02   1
  -5   8  -1  247.98   42.96   1
   5  -8   2 1612.10  102.20   1
   5  -8  -2 1634.08   92.20   1
  -5   8  -2 1528.84  114.15   1
  -5   8   2 1614.15   94.56   1
   5  -8  -3 1538.99   84.92   1
  -5   8  -3 1499.26  114.51   1
  -5   8   3 1470.87   93.29   1
   5  -8   3 1529.64  102.69   1
  -5   8  -4 1490.03  113.64   1
  -5   8   4 1488.03   89.98   1
   5  -8   4 1488.48  105.11   1
   5  -8  -5 1464.64   78.40   1
  -5   8  -5 1374.81  115.77   1
   5  -8   5 1384.54   97.93   1
  -5   8   5 1375.11   89.22   1
   5  -8  -6 2141.54   91.46   1
  -5   8  -6 2598.52  160.40   1
   5  -8   6 2594.38  148.20   1
   5  -8  -7  183.59   25.77   1
   5  -8  -8 1320.59   65.02   1
   5  -9   0 3029.86  141.72   1
  -5   9   0 2946.83  151.51   1
   5  -9   1 1434.29   98.23   1
   5  -9  -1 1428.76   93.95   1
  -5   9  -1 1432.63  105.62   1
  -5   9   1 1439.10   99.25   1
   5  -9   2  890.65   80.23   1
   5  -9  -2  874.55   71.60   1
  -5   9  -2  845.77   82.63   1
  -5   9   2  888.97   79.88   1
   5  -9   3 1224.28   98.59   1
   5  -9  -3 1215.76   83.24   1
  -5   9  -3 1180.38  100.46   1
  -5   9   3 1206.63   88.93   1
   5  -9   4  127.74   32.01   1
  -5   9  -4  116.19   33.87   1
  -5   9   4  122.32   28.57   1
   5  -9  -4  144.31   28.24   1
  -5   9   5  741.54   72.96   1
   5  -9  -5  795.14   63.29   1
   5  -9  -6 1499.08   84.02   1
   5  -9  -7 1316.74   73.67   1
   5  -9  -8  664.26   49.94   1
  -5  10   0   11.17   11.49   1
   5 -10   0    3.96   10.74   1
   5 -10   1  756.55   76.54   1
   5 -10  -1  757.45   74.12   1
  -5  10  -1  777.34   81.88   1
  -5  10   1  761.65   80.74   1
   5 -10   2  466.93   63.12   1
   5 -10  -2   68.18   60.77   1
  -5  10  -2  494.24   70.82   1
  -5  10   2   64.25   63.74   1
   5 -10  -3  138.53   84.65   1
  -5  10   3  106.95   93.82   1
  -5  10   4  100.88   75.08   1
   5 -10  -4  624.36   61.30   1
  -5  10   5 2185.15  147.47   1
   5 -10  -5  744.29   65.27   1
   5 -10  -6   40.83   16.35   1
   5 -10  -7  344.28   40.97   1
   5 -11   0   -0.15    9.20   1
  -5  11   0   14.54   21.65   1
   5 -11  -1  755.72   77.09   1
  -5  11   1   84.85   77.91   1
  -5  11   2    7.20   34.46   1
   5 -11  -2   10.98   34.05   1
  -5  11   3   21.14   40.01   1
   5 -11  -3   23.69   41.21   1
  -5  11   4   17.40   21.82   1
   5 -11  -4   25.32   13.80   1
   5 -11  -5  164.95   33.10   1
   5 -11  -6   -8.09   13.80   1
   5 -11  -7 1100.27   78.81   1
   5 -12  -2  178.43  101.65   1
  -5  12   3  123.14  109.49   1
   5 -12  -3  144.47   94.33   1
  -5  12   4 1061.10  116.20   1
   5 -12  -4 1148.64   92.38   1
   5 -12  -5  143.59   33.88   1
   5 -12  -6 1457.85  100.87   1
   5 -12  -7  155.01   37.38   1
   5 -13  -6  979.27   87.12   1
  -6   1   8   19.55    5.54   1
  -6   2   6 4101.63   88.23   1
  -6   2   7   12.39    4.99   1
  -6   3   2  127.05   24.06   1
  -6   3   310605.40  189.12   1
  -6   3   4  784.41   47.76   1
  -6   3   5  205.07   23.48   1
  -6   3   6  305.50   24.69   1
  -6   3   7 1432.57   48.39   1
  -6   4   027135.10  364.11   1
  -6   4   1  393.26   41.88   1
  -6   4  -1  395.62   47.40   1
  -6   4  -2   87.22   26.80   1
  -6   4   2   90.45   20.12   1
  -6   4   3   84.07   18.68   1
  -6   4   4  230.51   27.78   1
  -6   4   5   19.94    9.07   1
  -6   4   614255.50  190.93   1
  -6   4   7  637.74   35.66   1
   6  -5   0  191.05   32.80   1
  -6   5   0  215.78   33.39   1
  -6   5  -1  838.49   70.60   1
  -6   5   1  855.73   64.03   1
   6  -5   1  830.03   69.61   1
   6  -5  -1  795.18   62.36   1
   6  -5   2   90.25   24.54   1
   6  -5  -2  108.35   20.64   1
  -6   5  -2   77.67   26.11   1
  -6   5   2   97.24   21.99   1
  -6   5  -3 5472.07  196.67   1
  -6   5   3 5643.92  148.06   1
   6  -5  -3 5472.40  143.95   1
   6  -5   3 5404.25  185.59   1
   6  -5   4   22.28   17.12   1
  -6   5   4   39.98   14.11   1
  -6   5  -4   25.46   14.62   1
   6  -5  -4   37.72   13.11   1
  -6   5  -5 2024.68  129.93   1
  -6   5   5 2070.10   89.24   1
   6  -5   5 2002.25  122.58   1
  -6   5  -6  139.91   34.85   1
  -6   5   6  135.16   20.35   1
  -6   5   7   -8.83    8.19   1
  -6   6   0 2757.05  131.33   1
   6  -6   0 3559.57  140.02   1
   6  -6   1   28.92   17.06   1
  -6   6  -1   21.29   13.69   1
  -6   6  -2 3041.52  146.84   1
  -6   6   2 3164.74  128.06   1
   6  -6   2 2898.56  137.61   1
   6  -6  -2 2983.63  116.22   1
  -6   6  -3 2641.50  140.38   1
  -6   6   3 2780.49  114.73   1
   6  -6   3 2607.93  133.09   1
   6  -6  -3 2749.13  105.43   1
  -6   6  -4 1267.13  101.08   1
  -6   6   4 1181.34   70.75   1
   6  -6   4 1223.21   94.77   1
   6  -6  -4 1285.35   68.30   1
   6  -6   5   61.85   23.06   1
   6  -6  -5   65.97   15.82   1
  -6   6  -5   50.31   22.47   1
  -6   6   5   65.12   15.57   1
  -6   6  -6 1126.48  101.17   1
  -6   6   6 1115.95   64.43   1
   6  -6   6 1180.86   96.63   1
   6  -6  -6 1130.38   57.69   1
  -6   6  -7  417.99   68.77   1
   6  -6  -7  470.41   34.55   1
   6  -6   7  455.70   64.70   1
  -6   6   7  465.97   40.67   1
  -6   7   0 3237.99  140.45   1
   6  -7   0 3193.26  135.11   1
  -6   7  -1 3421.05  156.97   1
  -6   7   1 3547.93  143.03   1
   6  -7   1 3393.46  145.85   1
   6  -7  -1 3493.42  134.59   1
  -6   7  -2  153.59   35.63   1
   6  -7   2  170.49   36.29   1
   6  -7  -2  177.23   31.08   1
  -6   7   2  169.61   32.20   1
   6  -7   3   87.38   26.06   1
   6  -7  -3   73.50   19.86   1
  -6   7   3   76.41   21.42   1
  -6   7  -3   85.86   29.48   1
  -6   7   4   11.00    8.89   1
   6  -7   4  -12.41   11.85   1
   6  -7  -4    5.35    6.41   1
  -6   7  -4  -12.75   14.47   1
  -6   7  -5 3869.93  189.48   1
  -6   7   5 3827.29  133.17   1
   6  -7   5 3821.34  179.17   1
   6  -7  -5 4048.84  124.06   1
   6  -7   6 1421.47  112.13   1
  -6   7   6 1389.19   76.10   1
   6  -7  -6 1429.91   70.25   1
  -6   7   7  985.39   65.39   1
   6  -7  -7 1209.92   60.26   1
   6  -7  -8  133.17   20.75   1
   6  -8   0  217.68   38.32   1
  -6   8   0  237.69   42.22   1
   6  -8   1   43.77   19.64   1
  -6   8  -1   50.77   24.62   1
   6  -8  -1   40.94   15.90   1
  -6   8   1   52.76   18.82   1
  -6   8  -2 1234.95  101.96   1
  -6   8   2 1251.57   89.26   1
   6  -8   2 1269.43   96.75   1
   6  -8  -2 1283.63   83.91   1
  -6   8   3   24.85   15.64   1
  -6   8  -3   43.57   22.34   1
   6  -8   3   34.35   19.40   1
   6  -8  -3   13.94    9.62   1
  -6   8  -4  663.48   79.91   1
  -6   8   4  621.43   58.53   1
   6  -8   4  608.22   72.61   1
   6  -8  -4  626.08   54.58   1
   6  -8  -5   -0.31    6.54   1
  -6   8   5    0.32   10.78   1
  -6   8   6  223.98   36.08   1
   6  -8  -6  233.42   30.19   1
   6  -8  -7  127.94   21.27   1
   6  -9   0   44.86   17.74   1
  -6   9   0   59.76   23.81   1
  -6   9   1    0.13   21.55   1
   6  -9   1   57.91   21.13   1
   6  -9  -1   40.18   37.38   1
  -6   9  -1   53.29   23.48   1
  -6   9   2   20.65   13.60   1
   6  -9   2    5.03    9.89   1
   6  -9  -2   -0.36   18.25   1
  -6   9  -2    4.67   11.50   1
   6  -9  -3 1499.56   94.82   1
  -6   9  -3 1317.91  123.63   1
   6  -9   3 1394.55  110.21   1
   6  -9  -4   95.93   24.48   1
  -6   9   4   90.92   26.92   1
   6  -9  -5   14.41   13.14   1
  -6   9   5   11.00    9.78   1
  -6   9   6    7.95   16.35   1
   6  -9  -6    0.93    8.18   1
   6  -9  -7   43.66   14.11   1
   6 -10   0  351.74   54.11   1
  -6  10   0   39.05   55.72   1
  -6  10  -1  344.45   59.66   1
   6 -10   1  278.39   48.79   1
   6 -10  -1   13.69   46.09   1
  -6  10   1   27.40   84.12   1
   6 -10  -295460.00  998.13   1
  -6  10   297077.80 1058.94   1
   6 -10  -3   30.25   50.62   1
  -6  10   3   29.54   50.88   1
   6 -10  -4  795.45   68.75   1
  -6  10   4  831.43   75.57   1
  -6  10   5   28.69   16.44   1
   6 -10  -5   33.84   14.37   1
   6 -10  -6  230.81   35.28   1
   6 -10  -7  728.76   61.10   1
   6 -11  -1  753.69   77.59   1
  -6  11   1   71.82   93.14   1
  -6  11   2    3.48   12.28   1
   6 -11  -2    7.36   13.82   1
   6 -11  -3 2338.31  128.65   1
  -6  11   3  201.54  133.40   1
   6 -11  -4   -0.24   13.49   1
  -6  11   4  -11.52   17.97   1
   6 -11  -5  373.55   47.85   1
  -6  11   5  374.54   58.26   1
   6 -11  -6    2.65    7.70   1
   6 -12  -3   26.08   46.61   1
  -6  12   4   74.88   30.13   1
   6 -12  -4  -28.47   41.02   1
  -6  12   5  183.04   51.10   1
   6 -12  -5  131.04   30.97   1
   6 -12  -6 1474.85   99.10   1
  -7   2   7   72.74   12.79   1
  -7   3   4   50.48   16.52   1
  -7   3   5    4.99    5.87   1
  -7   3   6  199.83   23.48   1
  -7   3   7  422.43   36.29   1
  -7   4   1  486.71   61.77   1
  -7   4   2  591.46   52.49   1
  -7   4   3 2845.58  112.30   1
  -7   4   4  176.38   27.25   1
  -7   4   5  239.60   28.99   1
  -7   4   6  149.48   20.58   1
  -7   4   7   58.93   23.49   1
  -7   5   0 2621.94  127.06   1
  -7   5  -1 1239.41   94.70   1
  -7   5   1 1315.19   87.24   1
  -7   5  -2  814.93   80.74   1
  -7   5   2  847.60   68.80   1
  -7   5   3  266.91   35.51   1
  -7   5   4  144.75   25.44   1
  -7   5   5 1405.70   73.23   1
  -7   5   6 1112.97   62.69   1
  -7   6   0 2635.32  131.43   1
   7  -6   0 2367.96  120.88   1
   7  -6   1   -2.75    9.65   1
  -7   6  -1   23.62   11.61   1
  -7   6  -2  453.28   64.07   1
  -7   6   2  464.07   52.01   1
   7  -6  -2  414.79   47.59   1
   7  -6   2  380.12   55.53   1
  -7   6   3   31.37   12.37   1
  -7   6  -3  312.83  127.50   1
   7  -6  -3   49.91   21.03   1
   7  -6   3  339.12  152.77   1
  -7   6  -4  284.70   63.24   1
  -7   6   4  256.51   34.38   1
   7  -6  -4  300.44   35.73   1
  -7   6  -5  582.26   78.54   1
  -7   6   5  557.27   51.95   1
   7  -6   5  589.17   71.23   1
  -7   6   6 1774.87   82.12   1
  -7   7   0 2088.98  120.50   1
   7  -7   0 1877.67  111.72   1
  -7   7   1    0.17   10.51   1
   7  -7   1    4.64    7.62   1
   7  -7  -1    1.37    9.29   1
  -7   7  -1    2.40   13.62   1
   7  -7   2  200.01   39.49   1
   7  -7  -2  212.24   35.35   1
  -7   7   2  216.68   38.04   1
  -7   7  -2  222.20   45.37   1
  -7   7   3  282.28   42.18   1
  -7   7  -3  298.51   52.24   1
   7  -7   3  296.29   50.72   1
   7  -7  -3  281.58   38.58   1
   7  -7   4  289.54   52.88   1
  -7   7  -4  409.30   67.92   1
  -7   7   4  311.75   40.17   1
   7  -7  -4  322.92   39.43   1
   7  -7  -5   29.48   23.87   1
  -7   7   5   97.43   21.21   1
  -7   7   6 1346.35   78.94   1
   7  -7  -6 1326.35   70.37   1
   7  -7  -7  135.79   25.37   1
   7  -8   0   20.92   13.39   1
  -7   8   0   23.70   14.86   1
  -7   8  -1  337.49   54.09   1
  -7   8   1   41.94   51.86   1
   7  -8   1  298.94   48.08   1
   7  -8  -1   37.80   45.43   1
  -7   8  -2  558.10   75.04   1
  -7   8   2  153.66   66.41   1
   7  -8   2  508.22   66.33   1
   7  -8  -2   63.36   57.71   1
  -7   8  -3   88.37   34.83   1
   7  -8   3   97.41   32.45   1
   7  -8  -3   68.72   19.82   1
  -7   8   3   61.51   20.47   1
  -7   8   4   85.41   23.12   1
   7  -8  -4   67.62   19.93   1
  -7   8   5  233.97   35.42   1
   7  -8  -5  250.76   34.01   1
   7  -8  -6   45.45   14.74   1
  -7   9   0  327.90   54.67   1
   7  -9   0  335.21   50.05   1
  -7   9  -1 1059.83  101.63   1
  -7   9   1   96.35   86.62   1
   7  -9   1 1030.15   94.31   1
   7  -9  -1  121.42   86.29   1
   7  -9  -2    0.52   10.14   1
  -7   9   2    5.52    9.76   1
  -7   9   3  563.04   61.95   1
   7  -9  -3  598.45   60.45   1
   7  -9  -4   57.34   19.03   1
  -7   9   4   61.28   20.29   1
  -7   9   5  755.55   72.17   1
   7  -9  -5  783.06   64.05   1
   7  -9  -6  240.13   33.43   1
   7 -10   0 1732.53  118.33   1
  -7  10   1   18.30   43.94   1
   7 -10  -1   13.15   39.85   1
  -7  10   2   63.66   17.20   1
   7 -10  -2    5.06   16.33   1
  -7  10   3  280.66  121.77   1
   7 -10  -3 1993.31  115.43   1
   7 -10  -4  179.45   33.58   1
  -7  10   4  153.12   36.38   1
  -7  10   5  533.30   63.30   1
   7 -10  -5  357.76   45.25   1
   7 -10  -6 1090.61   74.93   1
   7 -11  -2   51.25   64.77   1
  -7  11   3   61.54   84.63   1
   7 -11  -3  822.67   76.83   1
  -7  11   4    4.74   14.17   1
   7 -11  -4  113.39   44.74   1
   7 -11  -5  768.47   69.38   1
   7 -12  -5  373.26   51.53   1
  -8   3   6   83.92   17.22   1
  -8   4   4 2497.65  107.58   1
  -8   4   5   -3.11    6.09   1
  -8   4   6   -5.68    6.95   1
  -8   5   1  225.28   38.77   1
  -8   5   2   95.33   27.09   1
  -8   5   3  123.26   25.49   1
  -8   5   4  117.57   24.08   1
  -8   5   5  715.83   55.55   1
  -8   6   0 7866.63  242.35   1
  -8   6  -1   39.37   22.76   1
  -8   6   1    0.21   15.75   1
  -8   6  -2   29.99   19.47   1
  -8   6   2   -7.46    8.97   1
  -8   6   3   23.60   12.93   1
  -8   6   4  491.42   49.65   1
  -8   6   5  893.11   64.19   1
   8  -7   0   -3.08   21.67   1
  -8   7   0    4.67   22.22   1
   8  -7  -1   83.85   23.30   1
   8  -7   1   48.13   23.11   1
  -8   7  -1   53.50   21.02   1
  -8   7   1    1.91   16.69   1
  -8   7   2    3.81   19.13   1
   8  -7   2   66.95   27.99   1
  -8   7  -2   49.16   21.98   1
   8  -7  -2    2.39   26.85   1
  -8   7   3 8180.63  217.59   1
  -8   7   4   -7.84    9.25   1
  -8   7   5   14.27    9.86   1
  -8   8   0  196.73  117.72   1
   8  -8   0  166.86  107.31   1
  -8   8  -1   18.99   51.54   1
   8  -8   1  157.41   38.03   1
   8  -8  -1   23.04   34.11   1
  -8   8   1   14.80   35.47   1
   8  -8  -2    0.88    7.98   1
  -8   8   2   -7.57   11.68   1
   8  -8  -3  112.01   27.83   1
  -8   8   3  222.47   40.41   1
   8  -8  -4  270.26   33.74   1
  -8   8   4  299.08   41.37   1
   8  -8  -5   68.38   22.47   1
  -8   8   5  300.74   47.14   1
   8  -8  -6 1124.41   72.92   1
   8  -9   0  148.03   40.95   1
  -8   9   1   24.39   61.42   1
   8  -9  -1   30.36   54.86   1
   8  -9  -2   21.79   13.42   1
  -8   9   2    1.45   12.01   1
  -8   9   3  787.55   74.38   1
   8  -9  -3  850.42   73.78   1
  -8   9   4   26.23   14.91   1
   8  -9  -4   -2.86    8.14   1
   8  -9  -5  297.53   41.30   1
  -8  10   2  126.18  120.68   1
   8 -10  -2  117.49  104.58   1
  -8  10   3    6.16   10.57   1
  -8  10   4 1727.66  117.20   1
   8 -10  -4 1456.00   97.88   1
   8 -10  -5    5.14    7.57   1
   8 -11  -4   20.63   12.41   1
  -9   5   3  319.60   44.82   1
  -9   5   4   31.14   16.22   1
  -9   5   5  566.10   54.60   1
  -9   6   1    3.57   23.89   1
  -9   6   2    1.32   24.90   1
  -9   6   3  503.97   55.88   1
  -9   6   4   48.49   18.30   1
  -9   7   0   28.44   65.34   1
  -9   7   1    6.42   11.02   1
  -9   7   2   17.36   13.87   1
  -9   7   3  232.18   38.50   1
  -9   7   4   35.89   21.52   1
  -9   8   1   10.22   38.50   1
  -9   8   2   33.93   70.03   1
  -9   8   3  175.86   34.82   1
  -9   8   4  326.98   53.50   1
   9  -9  -2  104.75   29.62   1
  -9   9   2   25.74   52.52   1
   9  -9  -3   58.37   23.26   1
  -9   9   3   77.97   26.28   1
   9  -9  -4  126.96   30.60   1
   9 -10  -4   61.25   21.78   1
 -10   6   3  115.45   29.86   1
 -10   7   2    4.05   11.92   1
 -10   7   3   37.84   16.15   1
 -10   8   3  308.97   51.11   1
   0   0   0    0.00    0.00   0
;
_shelx_hkl_checksum              46152
loop_
_space_group_symop_operation_xyz
'x, y, z'
'-x, -y, z+1/2'
'-x+1/2, y+1/2, -z'
'x+1/2, -y+1/2, -z+1/2'
'-x, -y, -z'
'x, y, -z-1/2'
'x-1/2, -y-1/2, z'
'-x-1/2, y-1/2, z-1/2'
loop_
_atom_site_label
_atom_site_type_symbol
_atom_site_fract_x
_atom_site_fract_y
_atom_site_fract_z
_atom_site_U_iso_or_equiv
_atom_site_adp_type
_atom_site_occupancy
_atom_site_site_symmetry_order
_atom_site_calc_flag
_atom_site_refinement_flags_posn
_atom_site_refinement_flags_adp
_atom_site_refinement_flags_occupancy
Ca1 Ca 0.25404(13) 0.10929(9) 0.2500 0.0112(2) Uani 1 2 d S T P
Si1 Si -0.00581(14) 0.23537(9) -0.07365(10) 0.0103(3) Uani 1 1 d . . .
O1 O 0.2513(3) 0.1368(2) -0.0738(3) 0.0111(4) Uani 1 1 d . . .
O2 O 0.1243(4) 0.4068(2) -0.0572(2) 0.0099(4) Uani 1 1 d . . .
O3 O 0.4325(4) 0.3664(2) 0.0939(2) 0.0110(4) Uani 1 1 d . . .
O4 O 0.5630(5) 0.6518(3) 0.2500 0.0114(5) Uani 1 2 d S T P
O5 O 0.1238(5) 0.4081(3) 0.2500 0.0111(5) Uani 1 2 d S T P
B1 B 0.2292(5) 0.4549(3) 0.4046(3) 0.0093(5) Uani 1 1 d . . .
loop_
_atom_site_aniso_label
_atom_site_aniso_U_11
_atom_site_aniso_U_22
_atom_site_aniso_U_33
_atom_site_aniso_U_23
_atom_site_aniso_U_13
_atom_site_aniso_U_12
Ca1 0.0157(5) 0.0069(4) 0.0111(3) 0.000 0.000 0.00054(18)
Si1 0.0155(6) 0.0061(4) 0.0092(3) -0.00001(18) 0.0000(2) -0.0008(2)
O1 0.0153(13) 0.0061(9) 0.0118(8) 0.0002(5) 0.0003(6) -0.0004(5)
O2 0.0147(11) 0.0036(8) 0.0113(6) 0.0001(5) -0.0006(7) -0.0009(5)
O3 0.0135(12) 0.0092(8) 0.0101(7) -0.0010(5) 0.0006(7) 0.0020(5)
O4 0.0169(17) 0.0078(11) 0.0095(9) 0.000 0.000 0.0022(8)
O5 0.0154(17) 0.0087(11) 0.0092(9) 0.000 0.000 -0.0010(7)
B1 0.0118(15) 0.0053(11) 0.0108(9) 0.0001(7) -0.0004(9) 0.0000(7)
loop_
_atom_type_symbol
_atom_type_description
_atom_type_scat_dispersion_real
_atom_type_scat_dispersion_imag
_atom_type_scat_source
B B -0.0005 0.0001 'International Tables Vol C Tables 4.2.6.8 and 6.1.1.4'
O O -0.0010 0.0008 'International Tables Vol C Tables 4.2.6.8 and 6.1.1.4'
Si Si 0.0083 0.0108 'International Tables Vol C Tables 4.2.6.8 and 6.1.1.4'
Ca Ca 0.0425 0.0513 'International Tables Vol C Tables 4.2.6.8 and 6.1.1.4'
loop_
_geom_angle_atom_site_label_1
_geom_angle_atom_site_label_2
_geom_angle_atom_site_label_3
_geom_angle
_geom_angle_site_symmetry_1
_geom_angle_site_symmetry_3
O5 Ca1 O2 68.48(7) 7_665 3_545
O5 Ca1 O2 68.48(7) 7_665 8_656
O2 Ca1 O2 81.70(9) 3_545 8_656
O5 Ca1 O3 148.59(5) 7_665 7_565
O2 Ca1 O3 89.58(7) 3_545 7_565
O2 Ca1 O3 132.34(8) 8_656 7_565
O5 Ca1 O3 148.59(5) 7_665 4_455
O2 Ca1 O3 132.34(8) 3_545 4_455
O2 Ca1 O3 89.58(7) 8_656 4_455
O3 Ca1 O3 62.71(10) 7_565 4_455
O5 Ca1 O4 116.94(10) 7_665 7_565
O2 Ca1 O4 64.95(7) 3_545 7_565
O2 Ca1 O4 64.95(7) 8_656 7_565
O3 Ca1 O4 68.92(8) 7_565 7_565
O3 Ca1 O4 68.92(8) 4_455 7_565
O5 Ca1 O5 112.57(9) 7_665 .
O2 Ca1 O5 138.73(5) 3_545 .
O2 Ca1 O5 138.73(5) 8_656 .
O3 Ca1 O5 69.18(8) 7_565 .
O3 Ca1 O5 69.18(8) 4_455 .
O4 Ca1 O5 130.49(11) 7_565 .
O5 Ca1 O1 90.67(5) 7_665 .
O2 Ca1 O1 53.68(6) 3_545 .
O2 Ca1 O1 135.34(7) 8_656 .
O3 Ca1 O1 57.92(6) 7_565 .
O3 Ca1 O1 120.40(7) 4_455 .
O4 Ca1 O1 93.96(5) 7_565 .
O5 Ca1 O1 85.33(5) . .
O5 Ca1 O1 90.67(5) 7_665 6_556
O2 Ca1 O1 135.34(7) 3_545 6_556
O2 Ca1 O1 53.68(6) 8_656 6_556
O3 Ca1 O1 120.40(7) 7_565 6_556
O3 Ca1 O1 57.92(6) 4_455 6_556
O4 Ca1 O1 93.96(5) 7_565 6_556
O5 Ca1 O1 85.33(5) . 6_556
O1 Ca1 O1 170.34(9) . 6_556
O5 Ca1 O3 67.57(7) 7_665 6_556
O2 Ca1 O3 133.98(8) 3_545 6_556
O2 Ca1 O3 94.44(6) 8_656 6_556
O3 Ca1 O3 123.16(6) 7_565 6_556
O3 Ca1 O3 93.22(6) 4_455 6_556
O4 Ca1 O3 151.83(4) 7_565 6_556
O5 Ca1 O3 54.01(8) . 6_556
O1 Ca1 O3 114.09(7) . 6_556
O1 Ca1 O3 57.87(6) 6_556 6_556
O5 Ca1 O3 67.57(7) 7_665 .
O2 Ca1 O3 94.44(6) 3_545 .
O2 Ca1 O3 133.98(8) 8_656 .
O3 Ca1 O3 93.22(6) 7_565 .
O3 Ca1 O3 123.16(6) 4_455 .
O4 Ca1 O3 151.83(4) 7_565 .
O5 Ca1 O3 54.01(8) . .
O1 Ca1 O3 57.88(6) . .
O1 Ca1 O3 114.09(7) 6_556 .
O3 Ca1 O3 56.28(8) 6_556 .
O5 Ca1 B1 96.08(9) 7_665 .
O2 Ca1 B1 155.01(8) 3_545 .
O2 Ca1 B1 111.69(7) 8_656 .
O3 Ca1 B1 95.50(8) 7_565 .
O3 Ca1 B1 70.66(8) 4_455 .
O4 Ca1 B1 139.42(9) 7_565 .
O5 Ca1 B1 28.71(7) . .
O1 Ca1 B1 109.40(7) . .
O1 Ca1 B1 60.95(7) 6_556 .
O3 Ca1 B1 29.17(8) 6_556 .
O3 Ca1 B1 60.91(7) . .
O2 Si1 O4 122.89(12) . 3_545
O2 Si1 O3 118.93(11) . 7_565
O4 Si1 O3 118.01(13) 3_545 7_565
O2 Si1 O1 84.42(11) . .
O4 Si1 O1 91.39(14) 3_545 .
O3 Si1 O1 90.14(11) 7_565 .
O2 Si1 O1 87.88(10) . 7_565
O4 Si1 O1 92.20(14) 3_545 7_565
O3 Si1 O1 94.22(12) 7_565 7_565
O1 Si1 O1 172.27(8) . 7_565
O2 Si1 Si1 94.73(7) . 6
O4 Si1 Si1 28.20(9) 3_545 6
O3 Si1 Si1 146.19(7) 7_565 6
O1 Si1 Si1 89.96(7) . 6
O1 Si1 Si1 89.96(7) 7_565 6
O2 Si1 Ca1 86.23(8) . .
O4 Si1 Ca1 133.94(11) 3_545 .
O3 Si1 Ca1 45.75(9) 7_565 .
O1 Si1 Ca1 53.56(7) . .
O1 Si1 Ca1 126.69(7) 7_565 .
Si1 Si1 Ca1 143.315(18) 6 .
O2 Si1 Ca1 81.56(8) . 7_565
O4 Si1 Ca1 138.93(13) 3_545 7_565
O3 Si1 Ca1 54.13(8) 7_565 7_565
O1 Si1 Ca1 126.01(8) . 7_565
O1 Si1 Ca1 53.11(7) 7_565 7_565
Si1 Si1 Ca1 142.869(18) 6 7_565
Ca1 Si1 Ca1 73.62(2) . 7_565
O2 Si1 Ca1 160.61(8) . 5
O4 Si1 Ca1 37.74(9) 3_545 5
O3 Si1 Ca1 80.34(8) 7_565 5
O1 Si1 Ca1 93.89(7) . 5
O1 Si1 Ca1 93.14(7) 7_565 5
Si1 Si1 Ca1 65.925(14) 6 5
Ca1 Si1 Ca1 108.32(2) . 5
Ca1 Si1 Ca1 114.34(3) 7_565 5
B1 O1 Si1 120.32(18) 8_655 .
B1 O1 Si1 118.25(18) 8_655 7_665
Si1 O1 Si1 120.98(11) . 7_665
B1 O1 Ca1 91.96(14) 8_655 .
Si1 O1 Ca1 92.39(9) . .
Si1 O1 Ca1 92.28(9) 7_665 .
B1 O2 Si1 122.29(16) 6_556 .
B1 O2 Ca1 102.82(15) 6_556 3
Si1 O2 Ca1 134.13(11) . 3
B1 O3 Si1 117.34(17) 6_556 7_665
B1 O3 Ca1 134.73(15) 6_556 7_665
Si1 O3 Ca1 105.45(12) 7_665 7_665
B1 O3 Ca1 89.41(14) 6_556 .
Si1 O3 Ca1 96.28(9) 7_665 .
Ca1 O3 Ca1 100.38(7) 7_665 .
Si1 O4 Si1 123.61(18) 8_666 3
Si1 O4 Ca1 118.18(9) 8_666 7_665
Si1 O4 Ca1 118.18(9) 3 7_665
B1 O5 B1 116.5(3) . 6_556
B1 O5 Ca1 118.29(17) . 7_565
B1 O5 Ca1 118.29(17) 6_556 7_565
B1 O5 Ca1 95.17(17) . .
B1 O5 Ca1 95.17(17) 6_556 .
Ca1 O5 Ca1 105.81(11) 7_565 .
O2 B1 O5 116.1(3) 6_556 .
O2 B1 O1 101.6(2) 6_556 8_666
O5 B1 O1 113.1(2) . 8_666
O2 B1 O3 105.8(2) 6_556 6_556
O5 B1 O3 106.7(2) . 6_556
O1 B1 O3 113.4(2) 8_666 6_556
O2 B1 Ca1 97.47(14) 6_556 .
O5 B1 Ca1 56.11(14) . .
O1 B1 Ca1 160.88(18) 8_666 .
O3 B1 Ca1 61.42(12) 6_556 .
O2 B1 Ca1 49.48(12) 6_556 3_556
O5 B1 Ca1 153.7(2) . 3_556
O1 B1 Ca1 59.20(12) 8_666 3_556
O3 B1 Ca1 98.96(15) 6_556 3_556
Ca1 B1 Ca1 137.90(10) . 3_556
loop_
_geom_bond_atom_site_label_1
_geom_bond_atom_site_label_2
_geom_bond_distance
_geom_bond_site_symmetry_2
Ca1 O5 2.354(3) 7_665
Ca1 O2 2.3614(19) 3_545
Ca1 O2 2.3614(19) 8_656
Ca1 O3 2.403(2) 7_565
Ca1 O3 2.403(2) 4_455
Ca1 O4 2.405(3) 7_565
Ca1 O5 2.516(3) .
Ca1 O1 2.603(2) .
Ca1 O1 2.603(2) 6_556
Ca1 O3 2.651(2) 6_556
Ca1 O3 2.651(2) .
Ca1 B1 3.019(3) .
Si1 O2 1.600(2) .
Si1 O4 1.6030(15) 3_545
Si1 O3 1.6157(19) 7_565
Si1 O1 1.812(2) .
Si1 O1 1.848(2) 7_565
Si1 Si1 2.8256(15) 6
Si1 Ca1 3.2522(9) 7_565
Si1 Ca1 3.4633(10) 5
O1 B1 1.461(3) 8_655
O1 Si1 1.848(2) 7_665
O2 B1 1.444(3) 6_556
O2 Ca1 2.3614(19) 3
O3 B1 1.471(4) 6_556
O3 Si1 1.6157(19) 7_665
O3 Ca1 2.403(2) 7_665
O4 Si1 1.6030(15) 8_666
O4 Si1 1.6030(15) 3
O4 Ca1 2.405(3) 7_665
O5 B1 1.456(3) .
O5 B1 1.456(3) 6_556
O5 Ca1 2.354(3) 7_565
B1 O2 1.444(3) 6_556
B1 O1 1.461(3) 8_666
B1 O3 1.471(4) 6_556
B1 Ca1 3.029(3) 3_556
