#------------------------------------------------------------------------------
#$Date: 2017-08-11 08:38:00 +0300 (Fri, 11 Aug 2017) $
#$Revision: 199718 $
#$URL: file:///home/coder/svn-repositories/cod/cif/1/54/67/1546777.cif $
#------------------------------------------------------------------------------
#
# This file is available in the Crystallography Open Database (COD),
# http://www.crystallography.net/. The original data for this entry
# were provided by IUCr Journals, http://journals.iucr.org/.
#
# The file may be used within the scientific community so long as
# proper attribution is given to the journal article from which the
# data were obtained.
#
data_1546777
loop_
_publ_author_name
'Pakhomova, Anna'
'Bykova, Elena'
'Bykov, Maxim'
'Glazyrin, Konstantin'
'Gasharova, Biliana'
'Liermann, Hanns-Peter'
'Mezouar, Mohamed'
'Gorelova, Liudmila'
'Krivovichev, Sergey'
'Dubrovinsky, Leonid'
_publ_section_title
;
 A closer look into close packing: pentacoordinated silicon in a
 high-pressure polymorph of danburite
;
_journal_issue                   5
_journal_name_full               IUCrJ
_journal_page_first
;
;
_journal_paper_doi               10.1107/S2052252517010612
_journal_volume                  4
_journal_year                    2017
_chemical_formula_moiety         'B2 Ca O8 Si2'
_chemical_formula_sum            'B2 Ca O8 Si2'
_chemical_formula_weight         245.88
_chemical_name_common            danburite
_chemical_name_systematic        danburite
_space_group_crystal_system      triclinic
_space_group_IT_number           2
_space_group_name_Hall           '-P 1'
_space_group_name_H-M_alt        'P -1'
_symmetry_space_group_name_Hall  '-P 1'
_symmetry_space_group_name_H-M   'P -1'
_audit_creation_method           SHELXL-2014/7
_cell_angle_alpha                91.74(5)
_cell_angle_beta                 104.57(8)
_cell_angle_gamma                95.59(5)
_cell_formula_units_Z            2
_cell_length_a                   5.479(5)
_cell_length_b                   5.532(2)
_cell_length_c                   6.681(6)
_cell_measurement_pressure       25400000
_cell_measurement_reflns_used    150
_cell_measurement_temperature    296(2)
_cell_measurement_theta_max      12.7910
_cell_measurement_theta_min      2.0780
_cell_volume                     194.7(3)
_computing_cell_refinement
;
CrysAlisPro, Agilent Technologies,
Version 1.171.36.28 (release 01-02-2013 CrysAlis171 .NET)
(compiled Feb  1 2013,16:14:44)
;
_computing_data_collection
;
CrysAlisPro, Agilent Technologies,
Version 1.171.36.28 (release 01-02-2013 CrysAlis171 .NET)
(compiled Feb  1 2013,16:14:44)
;
_computing_data_reduction
;
CrysAlisPro, Agilent Technologies,
Version 1.171.36.28 (release 01-02-2013 CrysAlis171 .NET)
(compiled Feb  1 2013,16:14:44)
;
_computing_structure_refinement  'SHELXL-2014/7 (Sheldrick, 2014)'
_computing_structure_solution    'SHELXL-2014/7 (Sheldrick, 2014)'
_diffrn_ambient_pressure         25400000
_diffrn_ambient_temperature      296(2)
_diffrn_measured_fraction_theta_full 0.664
_diffrn_measured_fraction_theta_max 0.616
_diffrn_measurement_device_type
'esperanto-CrysAlisPro-abstract goniometer imported esperanto images'
_diffrn_measurement_method       '\w scans'
_diffrn_radiation_type           synchrotron
_diffrn_radiation_wavelength     0.29024
_diffrn_reflns_av_R_equivalents  0.0545
_diffrn_reflns_av_unetI/netI     0.0934
_diffrn_reflns_Laue_measured_fraction_full 0.664
_diffrn_reflns_Laue_measured_fraction_max 0.616
_diffrn_reflns_limit_h_max       6
_diffrn_reflns_limit_h_min       -6
_diffrn_reflns_limit_k_max       7
_diffrn_reflns_limit_k_min       -7
_diffrn_reflns_limit_l_max       7
_diffrn_reflns_limit_l_min       -8
_diffrn_reflns_number            1042
_diffrn_reflns_point_group_measured_fraction_full 0.664
_diffrn_reflns_point_group_measured_fraction_max 0.616
_diffrn_reflns_theta_full        10.500
_diffrn_reflns_theta_max         11.151
_diffrn_reflns_theta_min         1.765
_diffrn_source                   synchrotron
_diffrn_source_type              'PETRA III, Beamline P02.2'
_exptl_absorpt_coefficient_mu    0.223
_exptl_crystal_colour            colorless
_exptl_crystal_density_diffrn    4.193
_exptl_crystal_density_method    'not measured'
_exptl_crystal_description       'plate crystal'
_exptl_crystal_F_000             244
_exptl_crystal_size_max          0.020
_exptl_crystal_size_mid          0.015
_exptl_crystal_size_min          0.010
_refine_diff_density_max         0.763
_refine_diff_density_min         -0.809
_refine_diff_density_rms         0.228
_refine_ls_extinction_method     none
_refine_ls_goodness_of_fit_ref   1.120
_refine_ls_hydrogen_treatment    undef
_refine_ls_matrix_type           full
_refine_ls_number_parameters     68
_refine_ls_number_reflns         591
_refine_ls_number_restraints     0
_refine_ls_restrained_S_all      1.120
_refine_ls_R_factor_all          0.1154
_refine_ls_R_factor_gt           0.0887
_refine_ls_shift/su_max          0.488
_refine_ls_shift/su_mean         0.053
_refine_ls_structure_factor_coef Fsqd
_refine_ls_weighting_details
'w=1/[\s^2^(Fo^2^)+(0.1393P)^2^] where P=(Fo^2^+2Fc^2^)/3'
_refine_ls_weighting_scheme      calc
_refine_ls_wR_factor_gt          0.2368
_refine_ls_wR_factor_ref         0.2714
_reflns_Friedel_coverage         0.000
_reflns_number_gt                397
_reflns_number_total             591
_reflns_threshold_expression     'I > 2\s(I)'
_cod_data_source_file            lt5006.cif
_cod_data_source_block           danburite-III_25.4GPa
_cod_database_code               1546777
_shelx_shelxl_version_number     2014/7
_shelx_space_group_comment
;
The symmetry employed for this shelxl refinement is uniquely defined
by the following loop, which should always be used as a source of
symmetry information in preference to the above space-group names.
They are only intended as comments.
;
_shelx_res_file
;

    shelx.res created by SHELXL-2014/7


REM  p10_m23 in P-1
REM R1 =  0.1923 for     407 Fo > 4sig(Fo)  and  0.2103 for all     601 data
REM     53 parameters refined using      0 restraints
REM Highest difference peak  3.043,  deepest hole -1.956,  1-sigma level  0.814
TITL p10_m23 in P-1

CELL 0.29056 5.4790 5.5321 6.6808 91.737 104.574 95.588
ZERR 2.0000 0.0051 0.0024 0.0057 0.049 0.077 0.052
LATT 1
SFAC B O SI CA
DISP    Ca    0.04254    0.05130       101.42
DISP    O    -0.00099    0.00082         6.66
DISP    Si    0.00828    0.01077        28.22
DISP    B    -0.00051    0.00009         3.17
UNIT 4 16 4 2
MERG 2
FMAP 2
GRID
PLAN 20
TEMP 23
OMIT  -5  -1   2
omit -3 2 0
OMIT -3 0 1
OMIT -2  -1   1
OMIT  -1   3   5
OMIT  4  -5   1
OMIT  -1  -6   3
OMIT  2  -6   2
OMIT  -4  -2   2
OMIT -2   1   0
L.S. 1
ACTA 21
WGHT    0.139300
FVAR       0.31358
CA1   4    0.179597    0.915814    0.762578    11.00000    0.01431    0.02229 =
         0.03423    0.00207    0.00343    0.00715
SI1   3    0.321272    0.316469    0.507065    11.00000    0.01366    0.01912 =
         0.02854    0.00431    0.00438    0.00554
SI2   3    0.590225    0.570129    0.844722    11.00000    0.01176    0.02167 =
         0.02864    0.00473    0.00548    0.00752
O1    2    0.264760    0.035142    0.413227    11.00000    0.01598
O2    2    0.516305    0.251327    0.744401    11.00000    0.01661
O3    2    0.066368    0.300234    0.590612    11.00000    0.01986
O4    2    0.415285    0.618571    0.598905    11.00000    0.02054
O5    2    0.059837    0.803810    0.106628    11.00000    0.01759
O6    2    0.384143    0.126014    0.099210    11.00000    0.02077
O7    2    0.712551    0.484731    0.083803    11.00000    0.02349
O8    2   -0.146421    0.579231    0.746124    11.00000    0.01925
B1    1   -0.027374    0.612160    0.222727    11.00000    0.02250
B2    1    0.702018    0.063075    0.776868    11.00000    0.02298
HKLF 4

REM  p10_m23 in P-1
REM R1 =  0.0887 for     397 Fo > 4sig(Fo)  and  0.1154 for all     591 data
REM     68 parameters refined using      0 restraints

END

WGHT      0.1375      0.0000

REM Highest difference peak  0.763,  deepest hole -0.809,  1-sigma level  0.228
Q1    1   0.1617 -0.0598  0.3037  11.00000  0.05    0.76
Q2    1   0.7598  0.1385  0.8005  11.00000  0.05    0.74
Q3    1   0.2038  0.7148  0.3547  11.00000  0.05    0.74
Q4    1   0.4198  0.3211  0.4377  11.00000  0.05    0.72
Q5    1   0.3061  0.8996  0.6667  11.00000  0.05    0.72
Q6    1   0.0807  0.9430  0.8627  11.00000  0.05    0.71
Q7    1   0.4939 -0.0698  0.6565  11.00000  0.05    0.71
Q8    1   0.6847  0.5548  0.7558  11.00000  0.05    0.71
Q9    1   0.2737 -0.0046  0.3227  11.00000  0.05    0.70
Q10   1   0.4467  0.6296  0.7151  11.00000  0.05    0.70
Q11   1   0.1536  0.3802  0.7002  11.00000  0.05    0.70
Q12   1   0.2407  0.3040  0.5902  11.00000  0.05    0.69
Q13   1   0.6080  0.5077  0.1852  11.00000  0.05    0.64
Q14   1   0.5033  0.3867  0.5215  11.00000  0.05    0.60
Q15   1   0.1506  0.3104  0.5218  11.00000  0.05    0.59
Q16   1   0.2415  0.8274  0.0168  11.00000  0.05    0.58
Q17   1   0.0000  0.5000  0.0000  10.50000  0.05    0.57
Q18   1   0.5366  0.3986  0.0528  11.00000  0.05    0.57
Q19   1   0.6922  0.6219  0.9154  11.00000  0.05    0.54
Q20   1   0.3040  0.1939 -0.0373  11.00000  0.05    0.54
;
_shelx_res_checksum              19068
_shelx_hkl_file
;
   0   1  -3    2.16    1.10
   0  -1   2    7.16    1.42
   0   1  -2    6.46    1.37
   0  -1   1    5.62    0.96
   0   1  -1    5.84    1.03
   0   2  -5   75.34    7.05
   0   2  -4    3.18    1.33
   0  -2   4    3.82    1.50
   0   2  -3   14.29    2.57
   0  -2   3   13.43    2.62
   0  -2   2   85.74    5.61
   0   2  -2   86.77    5.78
   0  -2   0   37.41    3.31
   0   2   0   36.10    3.36
   0   2   1   24.73    2.90
   0  -2  -1   29.23    2.92
   0   3  -6   -0.18    0.39
   0   3  -5   22.58    4.16
   0  -3   5   23.16    4.22
   0   3  -4    2.01    1.23
   0  -3   4    2.16    1.19
   0  -3   3    2.28    1.11
   0   3  -3    1.97    1.17
   0   3  -2   51.55    5.36
   0  -3   2   49.09    5.09
   0   3   0   14.33    2.71
   0  -3   0   14.66    2.62
   0  -3  -1 1121.34   21.78
   0  -3  -2    0.82    0.70
   0   4  -7    1.66    1.32
   0  -4   6    4.23    1.94
   0   4  -6    1.73    1.49
   0   4  -5    2.65    1.69
   0  -4   5    2.19    1.49
   0   4  -3    0.32    0.81
   0  -4   3    0.79    0.77
   0  -4   1    0.50    1.14
   0   4  -1    1.49    1.09
   0   4   0   11.81    2.78
   0  -4   0   11.55    2.74
   0   4   1    0.41    0.33
   0  -4  -1    0.25    0.38
   0  -4  -2   12.08    2.74
   0   5  -6    0.13    0.88
   0  -5   6    0.18    0.39
   0   5  -5    2.60    1.61
   0  -5   5    0.00    0.14
   0  -5   3   14.60    3.80
   0   5  -3   12.51    3.70
   0   5  -1   37.68    5.80
   0  -5   0    8.37    2.76
   0   5   0   11.82    3.26
   0  -5  -1   -0.47    0.43
   0   5   1   -0.70    1.06
   0  -5  -2   11.36    3.00
   0   5   2    7.35    2.77
   0  -5  -3    1.63    1.28
   0   6  -5    4.08    2.40
   0  -6   5    4.07    2.41
   0   6  -4   11.31    4.03
   0  -6   4   10.64    3.65
   0  -6   2    7.90    3.19
   0   6  -2    7.64    3.65
   0   6  -1   20.57    5.27
   0  -6   1   12.55    4.71
   0  -6   0   12.94    4.14
   0   6   0   12.64    4.39
   0   6   1    0.13    0.73
   0  -6  -1    0.83    0.98
   0  -6  -3    0.00    0.35
   0  -6  -4    0.19    0.42
   0   7  -3    0.63    1.10
   0  -7   3    2.09    1.86
   0  -7   2    0.76    1.55
   0   7  -2    0.94    1.90
   0   7  -1    1.28    1.80
   0  -7   1    1.93    1.39
   0   7   0   -0.18    0.50
   0  -7   0    0.00    1.02
   0   7   1   -0.56    0.76
   0  -7  -1    0.00    0.83
   0  -7  -2    1.46    1.21
   0   7   2    1.30    1.52
   1  -7  -2   12.20    4.10
  -1   7   1    1.54    1.52
   1  -7  -1    0.88    1.24
   1  -7   0    0.74    1.31
  -1   7   0    0.00    1.35
  -1   7  -1   96.88   12.33
  -1   7  -2   -0.19    0.51
   1  -7   2   -1.49    1.25
   1  -6  -3    0.97    1.43
   1  -6  -2    7.08    2.81
  -1   6   1    6.36    2.90
   1  -6  -1    4.90    2.53
   1  -6   0    4.23    2.60
  -1   6   0    3.24    2.30
   1  -6   1    1.55    1.78
  -1   6  -1    2.07    2.03
  -1   6  -3   17.79    5.50
   1  -6   3   13.67    3.99
   1  -6   4    6.51    3.01
  -1   6  -4    8.58    3.64
   1  -6   5    0.00    0.96
  -1   6  -5    2.85    1.98
   1  -5  -2   10.09    4.20
   1  -5   0    3.87    2.20
  -1   5   0    3.70    2.32
   1  -5   1    6.19    2.50
  -1   5  -1    6.76    2.63
  -1   5  -3    0.42    0.73
   1  -5   3   -0.88    0.86
   1  -5   4    0.44    0.75
  -1   5  -4    0.65    1.31
  -1   5  -5    0.49    0.59
   1  -5   5    0.18    0.83
  -1   5  -6    0.85    0.44
   1  -5   6    0.00    0.74
   1  -4  -1   85.61    8.09
  -1   4   1   75.72    8.26
  -1   4   0    2.43    1.46
   1  -4   0    3.74    1.77
  -1   4  -1   19.20    4.11
   1  -4   2  716.64   22.88
  -1   4  -2  714.54   24.31
   1  -4   3    1.98    1.44
  -1   4  -3    1.71    1.26
  -1   4  -4   26.07    4.82
   1  -4   4   22.10    4.29
  -1   4  -5   35.06    6.08
   1  -4   5   31.59    5.30
   1  -4   6    1.20    0.78
  -1   4  -6    0.76    1.07
  -1   4  -7   -0.29    0.62
   1  -4   7    0.37    0.86
  -1   3   1   38.39    5.53
   1  -3  -1   56.33    5.49
   1  -3   0    9.41    2.49
  -1   3   0   11.02    2.75
   1  -3   2    4.19    1.58
  -1   3  -2    5.00    1.94
  -1   3  -3    1.11    0.96
   1  -3   3    1.41    0.91
   1  -3   4  105.64    8.56
  -1   3  -4   82.65    8.37
   1  -3   5    5.21    1.93
  -1   3  -5    6.32    2.31
   1  -3   6    1.92    1.21
  -1   3  -6    1.40    1.22
  -1   3  -7    6.73    2.62
   1  -3   7    9.71    3.20
  -1   2   0  260.39    9.92
   1  -2   0  248.57   10.51
   1  -2   1   22.10    3.07
  -1   2  -1   25.08    3.34
   1  -2   2   32.63    3.70
  -1   2  -2   35.14    4.12
  -1   2  -3   18.05    3.00
   1  -2   3   18.03    2.90
  -1   2  -4    4.04    1.71
   1  -2   4    2.73    1.25
   1  -2   5   -0.47    0.56
  -1   2  -5   -0.13    0.28
  -1   2  -6    0.97    0.93
   1  -2   6    0.26    1.08
  -1   2  -7   -0.11    0.53
  -1   2  -8    0.77    1.05
   1  -1   1   14.21    1.94
  -1   1  -1   15.04    1.99
   1  -1   2   72.11    4.60
  -1   1  -2   75.92    4.72
  -1   1  -3 1059.07   19.09
   1  -1   3 1059.77   18.31
  -1   1  -4    1.30    0.74
   1  -1   4    1.83    0.92
  -1   1  -5    0.23    0.90
   1   0   2   46.80    2.59
  -1   0  -3    0.51    0.38
  -1   0  -4    5.68    1.64
  -1  -2   0  119.45    4.94
   1   2   0  120.93    5.17
  -1  -2  -1  118.79    4.29
   1   2   1  116.85    4.76
   1   3  -4   36.64    5.17
  -1  -3   3    2.45    1.28
   1   3  -3    1.97    1.14
  -1  -3   2   61.40    5.39
   1   3  -2   59.57    5.46
   1   3  -1   11.93    2.33
  -1  -3   1   12.64    2.34
   1   3   0    4.50    1.50
  -1  -3   0    4.92    1.37
  -1  -3  -1    3.95    1.13
   1   3   1    2.31    1.26
  -1  -3  -2    1.33    0.62
  -1  -3  -3    5.52    1.25
   1   4  -5    5.63    2.51
  -1  -4   5    7.83    2.78
   1   4  -4   41.97    5.84
  -1  -4   4   44.56    6.00
  -1  -4   3    5.38    2.22
   1   4  -3    6.03    2.15
   1   4  -1  126.11    8.59
  -1  -4   1  121.24    8.05
   1   4   0    8.54    2.42
  -1  -4   0    1.56    0.96
  -1  -4  -1    0.51    0.46
   1   4   1    0.00    0.02
   1   4   2   44.20    4.90
  -1  -4  -2   57.02    5.05
  -1  -4  -3    4.84    1.40
  -1  -4  -4    1.85    0.93
  -1  -5   6    4.89    2.71
   1   5  -6    0.00    0.30
  -1  -5   5    0.00    0.67
   1   5  -5   -1.09    1.03
  -1  -5   4   15.05    4.30
   1   5  -4   14.41    4.30
  -1  -5   3   17.69    4.24
   1   5  -3   12.71    4.18
  -1  -5   2    1.23    3.06
   1   5  -2   10.26    3.37
   1   5  -1   70.99    7.36
   1   5   0    0.33    1.02
  -1  -5   0    0.95    0.73
   1   5   1   21.16    4.20
   1   5   2    1.31    1.01
  -1  -5  -2    1.52    0.88
  -1  -5  -3    1.62    0.81
  -1  -5  -4   15.07    2.77
  -1  -5  -5   69.76    6.42
  -1  -6   5   -0.64    0.82
   1   6  -5   -0.57    0.98
   1   6  -4    5.69    2.89
  -1  -6   4    4.99    2.62
   1   6  -3  517.35   22.79
   1   6  -2    0.00    0.35
  -1  -6   2   -0.40    0.79
   1   6  -1    1.64    1.55
  -1  -6   1    1.55    1.38
   1   6   0    8.69    2.77
  -1  -6   0    2.31    2.34
  -1  -6  -1   -0.36    0.38
   1   6   1    0.00    0.62
   1   6   2    0.53    0.55
  -1  -6  -2    4.10    2.20
  -1  -6  -3    0.07    0.60
   1   7  -2    2.02    2.58
  -1  -7   2    0.83    1.27
  -1  -7   1    8.38    3.06
   1   7  -1   10.05    4.08
  -1  -7   0   11.35    4.38
   1   7   0   17.39    4.75
   1   7   1    0.50    1.26
  -1  -7  -1    0.09    0.34
   2  -7  -2   20.88    5.40
   2  -7  -1    2.03    1.79
  -2   7   1    2.15    2.49
  -2   7   0    0.82    1.18
   2  -7   0    0.00    1.14
   2  -7   1   14.42    4.70
  -2   7  -1   14.94    5.14
   2  -7   2    4.08    2.57
  -2   7  -2    5.45    3.22
   2  -6  -1   20.81    5.27
  -2   6   1   14.37    5.33
  -2   6   0    1.92    1.74
   2  -6   0    3.12    2.17
   2  -6   1   18.18    5.09
  -2   6  -1   15.86    4.97
  -2   6  -2  443.59   24.22
   2  -6   2  432.26   22.07
   2  -6   3    1.21    1.15
  -2   6  -3    0.66    0.82
  -2   6  -4   11.20    4.21
   2  -6   4    8.47    3.56
   2  -5  -1   28.60    6.07
  -2   5   1   17.53    5.71
   2  -5   0   32.11    5.71
  -2   5   0   22.11    5.05
   2  -5   1   30.32    5.63
  -2   5  -1   28.90    5.83
  -2   5  -2   22.65    4.97
  -2   5  -3    0.04    1.05
   2  -5   3    0.64    0.93
  -2   5  -4   18.71    4.73
   2  -5   4    9.32    3.11
   2  -5   5   74.69    9.19
  -2   5  -5   74.91   10.04
   2  -4   0    7.84    2.70
  -2   4   0    7.96    2.77
   2  -4   2   38.22    5.70
  -2   4  -2   36.53    5.47
  -2   4  -3    0.00    1.05
   2  -4   3    0.84    0.73
  -2   4  -4    8.32    2.86
   2  -4   4    7.95    2.62
  -2   4  -5    0.19    0.40
   2  -4   5    0.00    0.66
  -2   4  -6    0.00    0.40
   2  -4   6    1.21    1.30
   2  -3   0   74.18    7.20
  -2   3   0   67.59    7.68
   2  -3   2    9.41    2.53
  -2   3  -2    9.54    2.55
   2  -3   3   70.81    7.04
  -2   3  -3   77.71    7.77
  -2   3  -4    5.70    2.11
   2  -3   4    0.44    0.48
  -2   3  -5    2.97    1.76
   2  -3   5    2.14    1.53
  -2   3  -6   10.48    4.26
   2  -3   6    1.97    1.77
  -2   3  -7    0.95    1.52
   2  -3   7    0.00    0.90
   2  -2   1   17.75    2.95
  -2   2  -1   16.91    2.84
   2  -2   2  199.53   10.29
  -2   2  -2  207.29   10.47
   2  -2   3   60.84    5.55
  -2   2  -4    3.72    1.63
   2  -2   4    4.86    1.65
  -2   2  -5    3.98    3.53
   2  -2   5   15.36    3.09
   2  -2   6  139.30    9.84
   2  -2   7    4.83    2.08
  -2   2  -7    1.69    1.28
  -2   1  -1    0.31    0.44
   2  -1   1    0.30    0.29
   2  -1   2    3.64    1.15
  -2   1  -2    2.56    0.96
   2  -1   3   51.50    4.31
  -2   1  -3   50.41    4.72
  -2   1  -4    0.92    1.25
   2  -1   4    1.73    0.89
  -2   1  -5    0.44    1.55
   2  -1   5    5.09    1.59
  -2   1  -6   -0.08    0.43
  -2   1  -7   -0.01    0.33
   2   0   2   12.30    1.56
  -2   0  -3    1.35    0.86
   2   0   3    2.84    0.79
   2   0   4   94.34    5.15
  -2   0  -6    0.24    1.01
  -2   0  -7    0.58    1.60
  -2  -1  -4    0.64    1.14
  -2  -1  -5   -0.30    0.27
   2   2   1   42.57    2.44
  -2  -2  -5    0.00    0.23
   2   3  -1   39.65    4.00
  -2  -3   0    7.81    1.55
   2   3   0    7.37    1.55
   2   3   1   38.86    3.18
  -2  -3  -1   37.47    2.97
   2   3   2   36.13    2.84
  -2  -3  -2   38.11    2.51
   2   4  -3    0.00    0.30
   2   4  -1   26.16    3.86
  -2  -4   1   24.56    3.73
   2   4   0    3.44    1.31
  -2  -4   0    2.85    1.33
   2   4   1   11.11    2.12
  -2  -4  -1   13.51    2.27
   2   4   2   48.89    4.38
  -2  -4  -2   55.65    3.93
  -2  -4  -3   10.43    1.74
  -2  -4  -4   29.45    2.74
  -2  -4  -5    1.99    0.79
  -2  -5   4   -5.28    2.10
   2   5  -4    0.00    0.73
  -2  -5   2    3.70    2.25
   2   5  -2    5.61    2.14
   2   5  -1    6.38    2.79
  -2  -5   1    6.23    2.74
  -2  -5   0   33.31    4.58
  -2  -5  -1   -0.26    0.34
   2   5   1   -0.78    0.69
   2   5   2    7.32    2.42
  -2  -5  -2   11.87    2.17
  -2  -5  -3    4.40    1.31
  -2  -5  -4    0.28    0.30
  -2  -6   4   -1.17    1.06
   2   6  -4    0.00    0.73
  -2  -6   3    0.40    1.76
   2   6  -3    1.58    1.62
   2   6  -2    0.30    0.60
  -2  -6   2    2.44    1.38
   2   6  -1    9.44    3.65
  -2  -6   1    8.00    3.26
  -2  -6   0   11.24    2.68
   2   6   0    5.94    2.98
   2   6   1    1.09    1.35
  -2  -6  -1    2.12    1.05
   2   6   2    9.75    3.26
  -2  -6  -2   14.08    2.69
   3  -6   0    3.06    2.36
  -3   6   0    2.99    2.52
  -3   6  -1    1.95    2.07
   3  -6   1   -1.04    1.56
  -3   6  -2   25.41    6.43
   3  -6   2   21.96    5.58
   3  -6   3    2.33    1.69
  -3   6  -3    3.17    2.21
  -3   5   0    3.80    2.61
   3  -5   0    7.66    2.94
   3  -5   2   76.30    9.31
  -3   5  -2   77.68    9.58
   3  -5   3    0.66    1.04
  -3   5  -3   -0.25    0.89
   3  -5   4    0.48    0.30
  -3   5  -4    0.86    1.10
   3  -4   0    0.99    1.02
   3  -4   1   16.14    3.81
  -3   4  -1   13.76    3.78
  -3   4  -2    0.90    1.09
   3  -4   2    2.06    1.30
   3  -4   3   28.35    5.22
  -3   4  -3   27.64    5.40
   3  -4   4    4.89    2.09
  -3   4  -4    6.59    2.70
  -3   4  -5    8.50    3.65
   3  -4   5    5.83    3.12
  -3   3  -1    6.36    2.25
   3  -3   1    6.43    2.24
  -3   3  -2    1.63    1.43
   3  -3   2    1.97    1.61
   3  -3   3   41.47    5.58
  -3   3  -3   35.43    5.59
   3  -3   4   20.56    3.84
  -3   3  -4   20.52    4.38
   3  -3   5   41.71    5.73
  -3   3  -5   47.78    6.93
   3  -3   6    0.73    0.69
  -3   3  -6    0.39    0.63
   3  -2   1   17.10    3.31
  -3   2  -2   13.10    2.78
   3  -2   2   17.07    3.26
   3  -2   3   64.28    6.28
  -3   2  -4    0.00    0.26
   3  -2   4    3.45    1.22
   3  -2   5    1.05    0.82
  -3   2  -5    0.80    0.79
   3  -2   6   11.13    2.79
  -3   2  -6   10.24    3.08
   3  -1   2    7.87    1.89
  -3   1  -2    3.83    2.03
   3  -1   3   19.59    2.97
  -3   1  -3    9.52    3.10
   3  -1   4   14.67    2.58
  -3   1  -4    2.13    2.63
   3  -1   5    5.90    1.66
  -3   1  -5    0.65    1.81
  -3   1  -6    0.15    1.17
   3  -1   6    1.07    0.75
   3   0   2   -0.03    0.08
   3   0   3   11.41    1.81
  -3   0  -3    1.09    1.94
   3   0   4   41.07    3.46
   3   0   5    1.19    0.60
  -3   0  -5    0.00    0.86
   3   1   2   31.82    2.30
  -3  -1  -5    1.22    0.59
  -3  -1  -6    0.08    0.17
  -3  -2  -6    0.08    0.46
   3   3   1    0.06    0.18
   3   3   2   26.45    2.17
   3   4  -1    5.18    1.87
   3   4   0    5.66    2.24
   3   4   1   13.24    2.41
   3   4   2    0.44    0.55
   3   5  -2    5.13    2.27
   3   5   0    4.09    1.92
   3   5   1    1.50    1.21
  -3  -5  -1    3.02    1.15
   3   5   2   10.22    2.48
  -3  -5  -2   11.34    1.94
  -3  -5  -3    0.62    0.50
   3   6  -3   18.45    5.49
   3   6  -2    4.59    2.70
   3   6  -1    9.22    3.25
  -3  -6   1   16.39    3.44
  -3  -6   0   69.70    6.56
  -3  -6  -1    1.76    0.90
   3   6   1    2.21    1.23
   4  -6   1   22.45    5.78
  -4   6  -1   13.73    5.50
  -4   6  -2    3.23    1.97
   4  -6   2    4.44    2.43
   4  -5   1  313.51   19.03
  -4   5  -1  306.94   22.42
  -4   5  -2    0.21    0.37
   4  -5   2   -1.85    1.50
   4  -5   3    0.33    0.93
  -4   5  -3    2.40    1.64
   4  -4   1    9.30    3.19
   4  -4   2    0.12    0.60
  -4   4  -2    0.75    0.94
   4  -4   3   15.62    4.32
  -4   4  -3   21.12    4.74
  -4   4  -4    0.28    0.54
   4  -4   4    1.51    1.35
   4  -3   2   63.42    7.27
  -4   3  -2   62.80    8.54
   4  -3   3    5.44    2.14
  -4   3  -3    4.73    2.43
  -4   3  -4    2.98    2.05
   4  -3   4    5.08    1.95
  -4   3  -5    8.98    3.03
   4  -3   5    8.37    2.58
   4  -2   2    0.02    0.28
   4  -2   3    8.28    2.54
  -4   2  -3    0.77    2.42
   4  -2   4   -0.35    0.41
  -4   2  -4    0.00    0.49
  -4   2  -5    0.57    1.99
   4  -2   5    4.45    1.78
   4  -1   2   24.46    3.77
   4  -1   3    3.41    1.36
  -4   1  -3    0.29    1.90
   4  -1   4   42.31    4.61
  -4   1  -5   -0.59    2.46
   4  -1   5   -4.69    1.71
   4   0   2    3.04    1.06
   4   0   3   42.69    4.10
   4   0   4    0.03    0.15
   4   0   5    1.83    0.83
  -4   0  -5    0.27    1.06
   4   1   3    1.94    0.71
   4   1   4    8.77    1.29
   4   3   2    6.06    0.98
   4   4   1    0.48    0.61
   4   4   2    0.41    0.49
   4   5  -1   13.83    3.42
   4   5   0    1.07    1.00
   4   5   1    3.66    1.60
   5  -5   2   24.10    5.52
  -5   5  -2   16.58    5.01
   5  -4   2    4.52    2.26
  -5   4  -3    0.00    1.07
   5  -4   3    2.55    1.90
   5  -3   2   -0.53    0.74
  -5   3  -3    0.25    0.52
   5  -3   3    0.33    0.31
   5  -3   4    4.15    1.78
  -5   3  -4    5.90    2.86
   5  -2   2   -0.44    0.56
   5  -2   3   56.91    6.81
   5  -2   4   86.08    8.36
   5  -1   3   10.67    2.58
   5  -1   4    4.61    1.69
   5   0   3    7.74    2.20
   5   0   4    0.78    0.68
   5   1   3    0.64    0.49
   5   1   4   27.62    2.73
   5   2   3    0.50    0.34
   6  -1   3    3.09    1.43
   0   2   3    5.90    0.84
   0   3   4   39.39    2.55
   0   3   5    0.00    0.11
   0  -4  -2    8.10    1.52
   0  -4  -3   14.39    1.40
   0   4   4    2.55    1.00
   0   4   5    6.99    1.38
   0   4   6    0.52    0.50
   0  -5  -3    1.48    0.66
   0  -5  -4    4.74    0.83
   0  -6  -3    0.59    0.55
   1  -6  -3    1.21    0.81
   1  -5  -5    3.69    0.98
  -1   5   5    1.45    1.21
   1  -5  -4   16.65    2.12
   1  -5  -3    0.76    0.57
  -1   4   6   15.33    2.77
  -1   4   5    0.19    0.25
   1  -4  -5    0.38    0.66
   1  -4  -4   45.01    3.20
  -1   4   4   29.66    3.54
  -1   4   3    3.15    1.78
   1  -4  -3    5.69    1.29
   1  -4  -2   27.06    3.34
  -1   3   6    2.55    0.90
  -1   3   5  272.87    9.94
  -1   3   4   46.63    3.45
   1  -3  -4   48.72    3.40
   1  -3  -3    8.75    1.40
  -1   3   3    8.12    1.63
  -1   3   2    4.90    1.52
   1  -3  -2    7.42    1.49
  -1   2   4    0.89    0.49
  -1   2   3  118.55    5.05
   1  -2  -3  114.10    4.77
   1  -2  -2    0.59    0.33
  -1   2   2    0.58    0.40
  -1   2   1   53.94    4.77
   1  -2  -1   59.44    4.08
  -1   1   3  280.37    7.77
   1  -1  -2   55.84    2.90
  -1   1   2   54.39    2.94
  -1   1   1   47.26    2.81
   1  -1  -1   38.98    2.73
   1   0  -1   -0.05    0.08
  -1   0   1    0.09    0.10
   2  -6  -3    1.52    0.96
   2  -5  -5    1.67    1.02
  -2   5   5    0.55    2.13
   2  -5  -4   19.87    2.90
  -2   5   4   11.14    3.54
   2  -5  -3   16.11    2.92
   2  -5  -2    3.13    1.38
  -2   4   6    2.32    1.22
   2  -4  -6    2.90    1.20
   2  -4  -5    2.32    0.95
  -2   4   5    2.10    1.27
  -2   4   4   30.20    4.27
   2  -4  -4   35.19    3.79
   2  -4  -3    1.19    0.84
  -2   4   3    1.39    0.89
   2  -4  -2    1.23    0.83
  -2   3   7    0.39    0.29
  -2   3   6    0.91    0.79
  -2   3   5    5.98    1.57
   2  -3  -5    5.91    1.57
   2  -3  -4    0.78    0.42
  -2   3   4    0.59    0.52
  -2   3   3   12.23    2.36
   2  -3  -3   14.60    2.20
   2  -3  -2    1.73    0.89
  -2   3   2    2.10    1.00
   2  -3  -1    1.97    1.03
  -2   2   6  176.88    9.12
  -2   2   5    3.28    1.31
   2  -2  -4    0.05    0.29
  -2   2   4    0.00    0.20
   2  -2  -3   21.26    2.57
  -2   2   3   20.47    2.57
   2  -2  -2   33.66    3.25
  -2   2   2   33.94    3.51
  -2   2   1    6.93    1.96
   2  -2  -1    4.66    1.69
  -2   1   4   14.58    2.31
  -2   1   3   91.18    5.18
   2  -1  -3   90.80    5.31
  -2   1   2   60.64    3.96
   2  -1  -2   55.30    3.99
  -2   1   1    6.60    1.48
   2  -1  -1    0.00    0.09
   2  -1   0 1061.20   21.03
  -2   1   0 1070.98   21.49
  -2   0   2   71.39    4.25
   2   0  -2   68.31    4.41
   2   0  -1   29.91    2.77
  -2   0   1   31.74    2.75
   2   0   0   11.03    1.94
  -2   0   0   11.25    2.00
  -2   0  -1  104.84    8.42
   2   0   1  155.11    7.31
  -2  -1   1 1564.28   17.96
   2   1  -1 1563.55   18.63
   2   1   0    0.77    0.47
  -2  -1   0    0.78    0.50
  -2  -1  -1  317.74    9.92
   2   1   1  315.65    9.04
   2   1   2   29.73    3.01
  -2  -2   0    2.10    0.73
   2   2   1   40.65    2.34
  -2  -2  -1   35.98    2.69
   2   2   2    6.80    1.01
   2   2   3    2.53    0.82
  -2  -3  -1   33.58    2.16
   2   3   4    1.31    0.45
  -2  -5  -2    7.55    1.11
   3  -6  -3   -0.35    0.55
  -3   5   5    1.93    1.59
   3  -5  -5    5.22    1.74
   3  -5  -4    1.42    0.91
  -3   5   4    1.44    1.35
   3  -5  -3    8.13    2.20
  -3   5   3    2.67    2.02
   3  -5  -2   18.49    4.05
   3  -4  -6    4.40    1.71
  -3   4   6    3.22    1.85
   3  -4  -5   10.90    2.33
  -3   4   5   10.29    2.86
   3  -4  -4   -0.48    0.48
  -3   4   4   -0.97    0.76
  -3   4   3    0.94    0.71
   3  -4  -3    0.02    0.62
   3  -4  -2    1.71    1.09
  -3   4   2    0.11    0.93
  -3   3   7    3.88    1.90
  -3   3   6   25.16    4.36
   3  -3  -6   31.74    4.41
   3  -3  -5    7.64    1.96
  -3   3   5    5.31    1.88
   3  -3  -4   20.54    3.24
  -3   3   4   14.46    2.97
  -3   3   3  561.08   18.26
   3  -3  -3  550.41   15.97
   3  -3  -2   15.25    2.85
  -3   3   2   13.23    3.01
   3  -3  -1   10.60    2.71
  -3   3   1   11.26    3.47
  -3   2   7    2.19    1.26
  -3   2   6    2.26    1.14
  -3   2   5    1.26    0.93
   3  -2  -5    0.73    0.59
  -3   2   4    5.41    1.59
   3  -2  -4    5.09    1.45
   3  -2  -3    0.34    0.86
  -3   2   3    2.53    1.20
   3  -2  -2   19.92    3.02
  -3   2   2   17.71    3.02
  -3   2   1   39.12    5.07
   3  -2  -1   34.70    4.46
   3  -2   0  167.51   10.67
  -3   2   0  191.93   15.18
   3  -1  -5   36.78    4.43
  -3   1   5   33.50    4.11
  -3   1   4   19.66    3.06
   3  -1  -4   22.67    3.30
  -3   1   3    0.52    0.72
   3  -1  -3    0.53    0.59
   3  -1  -2   23.83    3.14
  -3   1   2   27.98    3.85
   3  -1  -1    6.19    1.96
  -3   1   1    7.57    2.19
   3  -1   0   22.50    3.74
  -3   1   0   22.91    4.09
   3  -1   1    1.38    1.24
  -3   0   4    4.35    1.56
   3   0  -3   46.11    4.49
  -3   0   3   44.42    4.12
   3   0  -2  981.95   17.79
  -3   0   2  976.02   19.92
  -3   0   1  727.96   18.39
   3   0  -1  718.65   17.15
  -3   0   0    2.14    1.17
   3   0   0    2.10    1.12
   3   0   1   38.88    4.96
  -3   0  -1   35.93    5.70
   3   1  -2   -0.55    0.67
  -3  -1   2    0.18    0.05
   3   1  -1   46.81    3.91
  -3  -1   1   40.70    4.16
   3   1   0   39.13    4.19
  -3  -1   0   41.55    4.41
  -3  -1  -1   12.38    2.30
   3   1   1   15.15    2.38
   3   1   2   41.11    4.22
  -3  -2   1   12.85    2.62
   3   2  -1   17.47    3.07
  -3  -2   0    1.67    0.70
   3   2   0    1.52    0.65
  -3  -2  -1   35.50    3.26
   3   2   1   30.21    2.76
  -3  -2  -2    6.11    1.95
   3   2   2    7.94    1.37
   3   2   3    6.19    1.48
   3   2   4   21.53    3.09
  -3  -3   0    7.61    1.42
  -3  -3  -1    0.26    0.33
   3   3   1   -0.51    0.33
   3   3   2   35.97    2.61
  -3  -3  -2   26.28    3.07
   3   3   3    3.28    0.87
   3   3   4    0.34    0.36
   3   3   5   16.31    2.62
  -3  -4  -1   12.33    1.78
  -3  -4  -2    0.00    0.14
  -3  -5  -1    2.48    0.80
  -3  -5  -2   11.19    1.52
   4  -5  -4    6.53    2.24
  -4   5   4    8.50    3.04
  -4   5   3   36.71    7.50
   4  -5  -3   35.93    5.42
   4  -5  -2    3.35    1.96
  -4   4   5    8.73    2.81
   4  -4  -5    9.16    2.60
   4  -4  -4    8.12    2.36
  -4   4   4    5.84    2.53
   4  -4  -3   34.51    5.35
  -4   4   3   39.68    6.25
   4  -4  -2    1.67    1.72
  -4   4   2    1.74    1.97
   4  -4  -1   25.02    5.08
  -4   3   6   17.39    4.35
   4  -3  -6    9.92    2.71
  -4   3   5    1.05    0.73
   4  -3  -5    0.63    0.83
   4  -3  -4   -1.26    1.06
  -4   3   4   -0.88    0.65
   4  -3  -3    1.59    0.87
  -4   3   3    2.29    1.23
  -4   3   2    0.00    0.78
   4  -3  -2   -0.12    0.15
   4  -3  -1   27.79    4.75
  -4   3   1   22.03    5.00
  -4   2   7    0.29    0.18
  -4   2   6    0.14    0.21
   4  -2  -6   -0.48    0.61
  -4   2   5   45.96    5.52
   4  -2  -5   44.64    5.45
   4  -2  -4   -0.37    0.45
  -4   2   4    0.04    0.40
   4  -2  -3    3.06    1.51
  -4   2   3    1.68    1.21
   4  -2  -2   63.37    6.12
  -4   2   2   61.99    6.71
   4  -2  -1   10.09    2.55
  -4   2   1    7.16    2.53
   4  -2   0    0.26    0.31
  -4   2   0    0.79    1.20
  -4   1   6   -0.28    0.48
   4  -1  -5   38.92    5.20
  -4   1   5   40.38    5.30
  -4   1   4   -0.14    0.29
   4  -1  -4    1.41    0.61
   4  -1  -3   57.85    5.55
  -4   1   3   55.55    5.69
  -4   1   2   50.69    6.03
   4  -1  -2   68.37    5.99
   4  -1  -1   21.79    3.53
  -4   1   1   26.51    4.33
   4  -1   0  110.59    8.55
  -4   1   0  125.33    9.94
   4  -1   1  469.63   19.76
  -4   1  -1  465.49   26.16
  -4   0   5   22.17    3.73
  -4   0   4    2.30    1.16
   4   0  -4    1.57    1.03
  -4   0   3    1.90    1.14
   4   0  -3    1.23    0.75
   4   0  -2    1.53    0.85
  -4   0   2    1.84    1.03
   4   0  -1    2.48    1.53
  -4   0   1    1.96    1.69
   4   0   0   10.45    2.63
  -4   0   0   10.00    2.85
  -4   0  -1    4.58    2.12
   4   0   1    9.34    2.25
   4   0   2    1.86    1.09
   4   1  -3    2.40    1.15
  -4  -1   3    1.93    0.94
  -4  -1   2    0.32    0.79
   4   1  -2   -0.17    0.16
   4   1  -1   69.44    5.44
  -4  -1   1   64.46    5.81
  -4  -1   0    7.75    2.24
   4   1   0    9.19    2.00
  -4  -1  -1    0.00    0.17
   4   1   1    0.22    0.53
   4   1   2   16.31    2.92
  -4  -1  -2    7.60    3.16
   4   1   3    1.24    0.98
  -4  -2   2  234.48   11.28
   4   2  -2  225.49   11.43
  -4  -2   1    7.11    2.18
   4   2  -1    9.79    2.12
  -4  -2   0    1.16    0.82
   4   2   0    1.31    0.67
   4   2   1   70.21    5.38
  -4  -2  -1   52.62    5.86
   4   2   2  180.31    8.19
  -4  -2  -2  152.05    9.92
   4   2   3    8.21    2.05
   4   2   4    1.47    0.90
  -4  -3   1    3.44    1.26
  -4  -3   0    0.17    0.28
   4   3   0    1.12    0.45
   4   3   1    9.22    1.77
  -4  -3  -1    5.88    1.50
  -4  -3  -2    7.06    1.88
   4   3   2    8.98    1.62
   4   3   3    4.11    1.18
  -4  -4   1    2.05    0.95
  -4  -4   0   22.74    3.09
  -4  -4  -1    1.26    0.58
  -4  -4  -2    1.22    1.16
  -4  -5   0    2.76    1.06
   5  -5  -2    9.73    3.32
  -5   5   2    8.55    4.62
   5  -4  -4    0.84    0.80
  -5   4   4   -2.42    1.68
   5  -4  -3   48.36    6.95
  -5   4   3   45.18    7.43
   5  -4  -2    1.47    1.28
  -5   4   2    0.12    0.54
  -5   4   1    3.06    3.13
   5  -4  -1    0.95    1.47
  -5   3   6    7.81    2.79
   5  -3  -6    9.09    2.73
   5  -3  -5    9.06    2.74
  -5   3   5    8.37    2.90
  -5   3   4    9.17    3.05
   5  -3  -4    9.95    2.75
   5  -3  -3    3.47    1.56
  -5   3   3    5.14    2.39
   5  -3  -2   47.32    6.61
  -5   3   2   56.28    7.97
   5  -3  -1    7.87    2.87
  -5   3   1    6.64    2.85
   5  -3   0    2.49    2.35
  -5   3   0   11.61    5.81
  -5   2   6   -0.98    0.89
   5  -2  -6   -0.26    0.44
   5  -2  -5   27.55    4.41
  -5   2   5   21.30    4.22
   5  -2  -4    4.65    1.85
  -5   2   4    5.16    2.32
  -5   2   3    1.96    1.37
   5  -2  -3    1.26    1.04
   5  -2  -2   44.67    5.69
  -5   2   2   50.21    7.05
   5  -2  -1   33.24    5.19
  -5   2   1   36.76    6.05
   5  -2   0   80.08    8.91
  -5   2   0   80.66   11.31
  -5   1   6    4.22    1.78
   5  -1  -6    1.85    1.21
  -5   1   5    8.48    2.67
   5  -1  -5    9.31    2.74
   5  -1  -4   18.43    3.50
  -5   1   4   18.80    3.69
   5  -1  -3    1.86    1.17
  -5   1   3    0.73    0.74
   5  -1  -2   25.30    4.03
  -5   1   2   27.74    4.68
   5  -1  -1   52.46    6.23
  -5   1   1   66.08    7.81
   5  -1   0    1.40    1.32
  -5   1   0    1.03    1.81
  -5   1  -1    0.00    1.81
   5  -1   1    0.84    1.06
  -5   0   6    2.00    1.13
  -5   0   5   14.06    3.21
   5   0  -5   13.67    3.36
  -5   0   4   20.80    4.09
   5   0  -4   17.05    3.48
  -5   0   3    5.65    1.95
   5   0  -3    6.78    2.06
   5   0  -2   17.69    3.40
  -5   0   2   13.80    3.44
   5   0  -1   40.09    4.83
  -5   0   1   36.81    5.59
  -5   0   0    1.57    1.47
   5   0   0    3.57    1.44
   5   0   1    8.50    2.43
  -5   0  -1   -1.72    1.55
   5   0   2   39.08    6.10
  -5  -1   4    6.24    2.17
   5   1  -4    8.25    2.56
  -5  -1   3    4.69    2.03
   5   1  -3    5.84    1.91
   5   1  -2 1339.75   27.21
  -5  -1   2 1345.98   28.38
   5   1  -1   68.84    6.31
  -5  -1   1   60.77    6.80
   5   1   0    4.56    1.70
  -5  -1   0    3.94    1.81
   5   1   1   73.93    6.57
  -5  -1  -1   62.40    7.47
  -5  -1  -2    4.66    2.66
   5   1   2    7.49    2.31
   5   1   3    1.59    1.14
   5   2  -3   41.85    5.57
  -5  -2   3   35.30    4.80
  -5  -2   2   14.85    3.34
   5   2  -2    2.08    1.31
  -5  -2   1   13.02    2.89
   5   2  -1   15.09    2.82
  -5  -2   0    2.91    1.70
   5   2   0    4.78    1.49
   5   2   1    1.18    0.60
  -5  -2  -1    0.00    0.57
  -5  -2  -2    0.25    0.24
   5   2   2    0.46    1.39
  -5  -3   2    5.00    1.90
   5   3  -1   23.82    3.85
  -5  -3   1   17.36    3.76
   5   3   0   21.57    3.36
  -5  -3   0   19.82    3.57
  -5  -3  -1    3.09    1.33
   5   3   1    2.83    1.07
  -5  -4   1    0.00    0.64
   6  -3  -4    4.90    2.24
  -6   3   4    3.79    2.29
  -6   3   3   -0.25    0.56
   6  -3  -3    0.00    0.74
  -6   3   2    8.63    3.62
   6  -3  -2    8.13    2.98
   6  -3  -1    1.62    1.59
  -6   3   1   -1.21    1.36
   6  -3   0    4.98    2.46
  -6   3   0    5.90    5.14
  -6   2   5    2.71    1.87
   6  -2  -5    1.66    0.92
   6  -2  -4   16.90    4.00
  -6   2   4   14.33    4.02
   6  -2  -3   27.00    4.90
  -6   2   3   31.98    5.95
   6  -2  -2    3.37    1.98
  -6   2   2    4.23    2.31
   6  -2  -1   47.25    7.48
  -6   2   1   59.40    9.20
   6  -2   0    8.84    2.98
  -6   2   0    7.34    3.94
   6  -2   1   27.19    6.02
  -6   1   5    2.28    1.53
   6  -1  -5    2.02    1.21
  -6   1   4    5.67    3.10
   6  -1  -4    3.67    1.86
   6  -1  -3    1.04    0.44
  -6   1   3    0.00    0.84
   6  -1  -2   27.08    4.97
  -6   1   2   24.70    4.94
  -6   1   1    2.07    1.48
   6  -1  -1    2.34    1.54
   6  -1   0    7.14    2.97
  -6   1   0   10.61    3.73
   6  -1   1   20.39    4.61
  -6   1  -1   14.02    5.59
   6  -1   2   20.09    5.06
   6   0  -5   30.26    5.42
  -6   0   5   29.00    5.48
   6   0  -4  171.39   12.27
  -6   0   4  175.78   12.62
   6   0  -3   17.36    3.69
  -6   0   3   15.30    3.98
   6   0  -2    7.05    3.11
  -6   0   2    4.91    2.91
   6   0  -1   25.22    4.38
  -6   0   1   21.61    4.86
  -6   0   0    0.00    0.83
   6   0   0    1.39    1.22
  -6   0  -1    0.00    0.72
   6   0   1    0.47    0.11
  -6  -1   5    1.05    1.31
   6   1  -5    0.00    0.63
  -6  -1   4    3.18    1.89
   6   1  -4    3.00    1.69
  -6  -1   3    7.45    2.60
   6   1  -3    7.96    2.62
  -6  -1   2    8.94    2.84
   6   1  -2    9.84    2.61
  -6  -1   1    0.00    0.53
   6   1  -1    0.30    0.45
   6   1   0   10.64    2.94
  -6  -1   0    9.43    3.46
   6   1   1    5.34    2.06
  -6  -1  -1    3.48    2.81
   6   2  -4    3.57    2.48
  -6  -2   4    1.48    1.12
  -6  -2   3    4.90    2.05
   6   2  -3    4.92    2.02
  -6  -2   2    2.48    1.33
   6   2  -2    2.14    1.38
   6   2  -1   23.42    3.96
  -6  -2   1   19.04    4.43
   6   2   0    0.21    0.37
  -6  -2   0   -0.78    0.91
   0   0   0    0.00    0.00
;
_shelx_hkl_checksum              47140
loop_
_space_group_symop_operation_xyz
'x, y, z'
'-x, -y, -z'
loop_
_atom_site_label
_atom_site_type_symbol
_atom_site_fract_x
_atom_site_fract_y
_atom_site_fract_z
_atom_site_U_iso_or_equiv
_atom_site_adp_type
_atom_site_occupancy
_atom_site_site_symmetry_order
_atom_site_calc_flag
Ca1 Ca 0.1796(4) 0.9158(4) 0.7626(4) 0.0238(9) Uani 1 1 d
Si1 Si 0.3213(5) 0.3165(5) 0.5071(5) 0.0203(10) Uani 1 1 d
Si2 Si 0.5902(5) 0.5701(5) 0.8447(5) 0.0202(10) Uani 1 1 d
O1 O 0.2648(12) 0.0351(12) 0.4132(11) 0.0160(15) Uiso 1 1 d
O2 O 0.5163(13) 0.2513(12) 0.7444(12) 0.0166(16) Uiso 1 1 d
O3 O 0.0664(13) 0.3002(13) 0.5906(12) 0.0199(17) Uiso 1 1 d
O4 O 0.4153(13) 0.6186(13) 0.5989(12) 0.0205(17) Uiso 1 1 d
O5 O 0.0598(12) 0.8038(12) 0.1066(12) 0.0176(16) Uiso 1 1 d
O6 O 0.3841(13) 0.1260(13) 0.0992(12) 0.0208(17) Uiso 1 1 d
O7 O 0.7126(13) 0.4847(13) 0.0838(13) 0.0235(18) Uiso 1 1 d
O8 O -0.1464(13) 0.5792(12) 0.7461(12) 0.0193(16) Uiso 1 1 d
B1 B -0.027(2) 0.612(2) 0.223(2) 0.022(2) Uiso 1 1 d
B2 B 0.702(2) 0.063(2) 0.777(2) 0.023(2) Uiso 1 1 d
loop_
_atom_site_aniso_label
_atom_site_aniso_U_11
_atom_site_aniso_U_22
_atom_site_aniso_U_33
_atom_site_aniso_U_23
_atom_site_aniso_U_13
_atom_site_aniso_U_12
Ca1 0.0143(12) 0.0223(12) 0.0342(17) 0.0021(9) 0.0034(9) 0.0071(8)
Si1 0.0137(14) 0.0191(14) 0.029(2) 0.0043(12) 0.0044(12) 0.0055(11)
Si2 0.0118(14) 0.0217(15) 0.029(2) 0.0047(12) 0.0055(12) 0.0075(11)
loop_
_atom_type_symbol
_atom_type_description
_atom_type_scat_dispersion_real
_atom_type_scat_dispersion_imag
_atom_type_scat_source
B B -0.0005 0.0001 'International Tables Vol C Tables 4.2.6.8 and 6.1.1.4'
O O -0.0010 0.0008 'International Tables Vol C Tables 4.2.6.8 and 6.1.1.4'
Si Si 0.0083 0.0108 'International Tables Vol C Tables 4.2.6.8 and 6.1.1.4'
Ca Ca 0.0425 0.0513 'International Tables Vol C Tables 4.2.6.8 and 6.1.1.4'
loop_
_geom_angle_atom_site_label_1
_geom_angle_atom_site_label_2
_geom_angle_atom_site_label_3
_geom_angle
_geom_angle_site_symmetry_1
_geom_angle_site_symmetry_3
O6 Ca1 O5 125.8(3) 2_666 2_576
O6 Ca1 O8 121.5(3) 2_666 .
O5 Ca1 O8 91.9(3) 2_576 .
O6 Ca1 O6 63.3(3) 2_666 1_566
O5 Ca1 O6 63.4(2) 2_576 1_566
O8 Ca1 O6 118.5(3) . 1_566
O6 Ca1 O1 174.5(3) 2_666 2_566
O5 Ca1 O1 57.5(2) 2_576 2_566
O8 Ca1 O1 60.9(2) . 2_566
O6 Ca1 O1 120.6(2) 1_566 2_566
O6 Ca1 O3 117.9(3) 2_666 1_565
O5 Ca1 O3 57.6(3) 2_576 1_565
O8 Ca1 O3 120.2(2) . 1_565
O6 Ca1 O3 93.7(3) 1_566 1_565
O1 Ca1 O3 59.3(2) 2_566 1_565
O6 Ca1 O2 59.0(3) 2_666 1_565
O5 Ca1 O2 91.7(2) 2_576 1_565
O8 Ca1 O2 174.5(3) . 1_565
O6 Ca1 O2 66.9(3) 1_566 1_565
O1 Ca1 O2 118.0(3) 2_566 1_565
O3 Ca1 O2 58.8(2) 1_565 1_565
O6 Ca1 O7 63.1(3) 2_666 2_666
O5 Ca1 O7 124.8(3) 2_576 2_666
O8 Ca1 O7 58.6(2) . 2_666
O6 Ca1 O7 89.4(3) 1_566 2_666
O1 Ca1 O7 119.5(3) 2_566 2_666
O3 Ca1 O7 176.8(3) 1_565 2_666
O2 Ca1 O7 122.1(2) 1_565 2_666
O6 Ca1 O4 57.6(2) 2_666 .
O5 Ca1 O4 176.2(3) 2_576 .
O8 Ca1 O4 87.2(3) . .
O6 Ca1 O4 120.3(2) 1_566 .
O1 Ca1 O4 119.0(2) 2_566 .
O3 Ca1 O4 119.8(3) 1_565 .
O2 Ca1 O4 88.9(2) 1_565 .
O7 Ca1 O4 57.7(3) 2_666 .
O6 Ca1 O1 90.7(3) 2_666 1_565
O5 Ca1 O1 112.7(3) 2_576 1_565
O8 Ca1 O1 116.2(2) . 1_565
O6 Ca1 O1 125.3(3) 1_566 1_565
O1 Ca1 O1 83.9(3) 2_566 1_565
O3 Ca1 O1 55.3(2) 1_565 1_565
O2 Ca1 O1 58.5(2) 1_565 1_565
O7 Ca1 O1 122.1(3) 2_666 1_565
O4 Ca1 O1 64.5(3) . 1_565
O6 Ca1 O3 120.5(3) 2_666 2_566
O5 Ca1 O3 113.0(2) 2_576 2_566
O8 Ca1 O3 59.5(3) . 2_566
O6 Ca1 O3 176.1(2) 1_566 2_566
O1 Ca1 O3 55.6(2) 2_566 2_566
O3 Ca1 O3 85.0(2) 1_565 2_566
O2 Ca1 O3 115.2(3) 1_565 2_566
O7 Ca1 O3 91.9(2) 2_666 2_566
O4 Ca1 O3 63.4(2) . 2_566
O1 Ca1 O3 56.7(2) 1_565 2_566
O6 Ca1 O5 93.4(3) 2_666 1_556
O5 Ca1 O5 64.2(3) 2_576 1_556
O8 Ca1 O5 62.0(2) . 1_556
O6 Ca1 O5 56.5(2) 1_566 1_556
O1 Ca1 O5 92.0(3) 2_566 1_556
O3 Ca1 O5 121.8(2) 1_565 1_556
O2 Ca1 O5 123.4(2) 1_565 1_556
O7 Ca1 O5 60.7(3) 2_666 1_556
O4 Ca1 O5 118.5(3) . 1_556
O1 Ca1 O5 175.8(2) 1_565 1_556
O3 Ca1 O5 121.3(3) 2_566 1_556
O3 Si1 O1 93.1(4) . .
O3 Si1 O2 94.0(4) . .
O1 Si1 O2 95.1(4) . .
O3 Si1 O4 93.6(4) . .
O1 Si1 O4 173.3(4) . .
O2 Si1 O4 83.9(4) . .
O3 Si1 O4 170.5(4) . 2_666
O1 Si1 O4 93.7(4) . 2_666
O2 Si1 O4 92.0(4) . 2_666
O4 Si1 O4 79.7(4) . 2_666
O3 Si1 O8 91.2(4) . 2_566
O1 Si1 O8 90.4(4) . 2_566
O2 Si1 O8 172.2(4) . 2_566
O4 Si1 O8 90.0(4) . 2_566
O4 Si1 O8 82.2(4) 2_666 2_566
O3 Si1 Si2 132.7(3) . 2_666
O1 Si1 Si2 86.8(3) . 2_666
O2 Si1 Si2 133.1(3) . 2_666
O4 Si1 Si2 89.0(3) . 2_666
O4 Si1 Si2 41.3(3) 2_666 2_666
O8 Si1 Si2 41.6(3) 2_566 2_666
O3 Si1 Si2 92.0(3) . .
O1 Si1 Si2 139.0(3) . .
O2 Si1 Si2 43.9(2) . .
O4 Si1 Si2 40.2(3) . .
O4 Si1 Si2 87.1(3) 2_666 .
O8 Si1 Si2 130.2(3) 2_566 .
Si2 Si1 Si2 117.91(15) 2_666 .
O3 Si1 Si1 133.5(3) . 2_666
O1 Si1 Si1 133.2(4) . 2_666
O2 Si1 Si1 87.4(3) . 2_666
O4 Si1 Si1 40.2(3) . 2_666
O4 Si1 Si1 39.5(2) 2_666 2_666
O8 Si1 Si1 84.9(3) 2_566 2_666
Si2 Si1 Si1 59.67(15) 2_666 2_666
Si2 Si1 Si1 58.24(14) . 2_666
O3 Si1 Ca1 56.7(3) . 1_545
O1 Si1 Ca1 59.5(3) . 1_545
O2 Si1 Ca1 56.9(3) . 1_545
O4 Si1 Ca1 124.5(3) . 1_545
O4 Si1 Ca1 132.8(3) 2_666 1_545
O8 Si1 Ca1 130.8(3) 2_566 1_545
Si2 Si1 Ca1 146.31(13) 2_666 1_545
Si2 Si1 Ca1 90.67(14) . 1_545
Si1 Si1 Ca1 144.29(19) 2_666 1_545
O3 Si1 Ca1 59.2(3) . 2_566
O1 Si1 Ca1 54.8(3) . 2_566
O2 Si1 Ca1 134.1(3) . 2_566
O4 Si1 Ca1 130.0(3) . 2_566
O4 Si1 Ca1 120.5(3) 2_666 2_566
O8 Si1 Ca1 53.6(2) 2_566 2_566
Si2 Si1 Ca1 83.67(14) 2_666 2_566
Si2 Si1 Ca1 150.93(15) . 2_566
Si1 Si1 Ca1 138.4(2) 2_666 2_566
Ca1 Si1 Ca1 77.32(12) 1_545 2_566
O7 Si2 O6 98.1(4) 1_556 2_666
O7 Si2 O4 169.0(4) 1_556 .
O6 Si2 O4 88.4(4) 2_666 .
O7 Si2 O8 100.5(4) 1_556 1_655
O6 Si2 O8 95.4(4) 2_666 1_655
O4 Si2 O8 87.6(4) . 1_655
O7 Si2 O2 91.1(4) 1_556 .
O6 Si2 O2 169.8(4) 2_666 .
O4 Si2 O2 81.8(4) . .
O8 Si2 O2 87.1(3) 1_655 .
O7 Si2 O7 83.5(4) 1_556 2_666
O6 Si2 O7 93.1(4) 2_666 2_666
O4 Si2 O7 87.3(4) . 2_666
O8 Si2 O7 169.9(3) 1_655 2_666
O2 Si2 O7 83.6(3) . 2_666
O7 Si2 Si1 146.1(3) 1_556 2_666
O6 Si2 Si1 86.0(3) 2_666 2_666
O4 Si2 Si1 42.7(3) . 2_666
O8 Si2 Si1 45.7(3) 1_655 2_666
O2 Si2 Si1 88.7(3) . 2_666
O7 Si2 Si1 130.0(3) 2_666 2_666
O7 Si2 Si2 44.2(3) 1_556 2_667
O6 Si2 Si2 97.4(4) 2_666 2_667
O4 Si2 Si2 126.4(3) . 2_667
O8 Si2 Si2 143.8(3) 1_655 2_667
O2 Si2 Si2 86.2(3) . 2_667
O7 Si2 Si2 39.3(3) 2_666 2_667
Si1 Si2 Si2 168.69(19) 2_666 2_667
O7 Si2 Si1 131.1(3) 1_556 .
O6 Si2 Si1 128.8(3) 2_666 .
O4 Si2 Si1 40.8(3) . .
O8 Si2 Si1 89.5(3) 1_655 .
O2 Si2 Si1 41.2(3) . .
O7 Si2 Si1 81.0(3) 2_666 .
Si1 Si2 Si1 62.09(15) 2_666 .
Si2 Si2 Si1 108.01(18) 2_667 .
O7 Si2 Ca1 120.9(3) 1_556 .
O6 Si2 Ca1 50.7(2) 2_666 .
O4 Si2 Ca1 57.2(3) . .
O8 Si2 Ca1 127.1(3) 1_655 .
O2 Si2 Ca1 120.3(2) . .
O7 Si2 Ca1 55.9(3) 2_666 .
Si1 Si2 Ca1 87.62(14) 2_666 .
Si2 Si2 Ca1 86.26(14) 2_667 .
Si1 Si2 Ca1 86.70(13) . .
B2 O1 Si1 128.7(8) 2_656 .
B2 O1 Ca1 89.4(6) 2_656 2_566
Si1 O1 Ca1 92.6(3) . 2_566
B2 O1 Ca1 143.0(7) 2_656 1_545
Si1 O1 Ca1 87.6(3) . 1_545
Ca1 O1 Ca1 96.1(3) 2_566 1_545
B2 O2 Si1 125.8(7) . .
B2 O2 Si2 125.2(6) . .
Si1 O2 Si2 94.9(4) . .
B2 O2 Ca1 87.5(6) . 1_545
Si1 O2 Ca1 87.5(3) . 1_545
Si2 O2 Ca1 134.2(4) . 1_545
B1 O3 Si1 130.6(7) 2_566 .
B1 O3 Ca1 87.9(6) 2_566 1_545
Si1 O3 Ca1 90.5(3) . 1_545
B1 O3 Ca1 141.1(7) 2_566 2_566
Si1 O3 Ca1 88.3(3) . 2_566
Ca1 O3 Ca1 95.0(2) 1_545 2_566
Si2 O4 Si1 99.0(4) . .
Si2 O4 Si1 96.0(4) . 2_666
Si1 O4 Si1 100.3(4) . 2_666
Si2 O4 Ca1 88.4(3) . .
Si1 O4 Ca1 129.6(4) . .
Si1 O4 Ca1 128.6(4) 2_666 .
B1 O5 B2 111.9(9) . 2_666
B1 O5 Ca1 90.8(6) . 2_576
B2 O5 Ca1 91.3(6) 2_666 2_576
B1 O5 Ca1 146.2(6) . 1_554
B2 O5 Ca1 89.1(7) 2_666 1_554
Ca1 O5 Ca1 115.8(3) 2_576 1_554
B2 O6 Si2 125.3(7) 2_656 2_666
B2 O6 Ca1 94.0(6) 2_656 2_666
Si2 O6 Ca1 95.7(3) 2_666 2_666
B2 O6 Ca1 95.8(6) 2_656 1_544
Si2 O6 Ca1 126.1(4) 2_666 1_544
Ca1 O6 Ca1 116.7(3) 2_666 1_544
B1 O7 Si2 121.4(8) 1_655 1_554
B1 O7 Si2 127.5(7) 1_655 2_666
Si2 O7 Si2 96.5(4) 1_554 2_666
B1 O7 Ca1 89.5(6) 1_655 2_666
Si2 O7 Ca1 134.5(4) 1_554 2_666
Si2 O7 Ca1 87.0(3) 2_666 2_666
B1 O8 Si2 123.0(7) 2_566 1_455
B1 O8 Si1 126.4(7) 2_566 2_566
Si2 O8 Si1 92.7(4) 1_455 2_566
B1 O8 Ca1 95.8(6) 2_566 .
Si2 O8 Ca1 128.6(4) 1_455 .
Si1 O8 Ca1 88.3(3) 2_566 .
O3 B1 O5 112.6(9) 2_566 .
O3 B1 O8 112.0(9) 2_566 2_566
O5 B1 O8 110.5(10) . 2_566
O3 B1 O7 108.6(10) 2_566 1_455
O5 B1 O7 107.4(9) . 1_455
O8 B1 O7 105.3(7) 2_566 1_455
O3 B1 Ca1 62.4(5) 2_566 2_576
O5 B1 Ca1 58.4(5) . 2_576
O8 B1 Ca1 157.8(7) 2_566 2_576
O7 B1 Ca1 96.7(6) 1_455 2_576
O3 B1 Ca1 100.6(7) 2_566 2_566
O5 B1 Ca1 146.8(8) . 2_566
O8 B1 Ca1 54.5(5) 2_566 2_566
O7 B1 Ca1 58.4(5) 1_455 2_566
Ca1 B1 Ca1 145.4(5) 2_576 2_566
O1 B2 O5 108.9(9) 2_656 2_666
O1 B2 O6 112.2(9) 2_656 2_656
O5 B2 O6 110.5(10) 2_666 2_656
O1 B2 O2 112.6(9) 2_656 .
O5 B2 O2 104.2(8) 2_666 .
O6 B2 O2 108.2(9) 2_656 .
O1 B2 Ca1 60.4(5) 2_656 1_645
O5 B2 Ca1 57.9(5) 2_666 1_645
O6 B2 Ca1 100.7(7) 2_656 1_645
O2 B2 Ca1 150.3(8) . 1_645
O1 B2 Ca1 104.6(6) 2_656 1_545
O5 B2 Ca1 146.4(8) 2_666 1_545
O6 B2 Ca1 55.4(5) 2_656 1_545
O2 B2 Ca1 60.9(5) . 1_545
Ca1 B2 Ca1 147.0(5) 1_645 1_545
O1 B2 Ca1 150.6(8) 2_656 2_667
O5 B2 Ca1 61.6(6) 2_666 2_667
O6 B2 Ca1 54.9(5) 2_656 2_667
O2 B2 Ca1 96.8(6) . 2_667
Ca1 B2 Ca1 94.1(4) 1_645 2_667
Ca1 B2 Ca1 89.0(4) 1_545 2_667
loop_
_geom_bond_atom_site_label_1
_geom_bond_atom_site_label_2
_geom_bond_distance
_geom_bond_site_symmetry_2
Ca1 O6 2.373(7) 2_666
Ca1 O5 2.404(7) 2_576
Ca1 O8 2.431(7) .
Ca1 O6 2.446(8) 1_566
Ca1 O1 2.468(7) 2_566
Ca1 O3 2.505(8) 1_565
Ca1 O2 2.515(7) 1_565
Ca1 O7 2.530(8) 2_666
Ca1 O4 2.566(8) .
Ca1 O1 2.585(8) 1_565
Ca1 O3 2.594(7) 2_566
Ca1 O5 2.620(9) 1_556
Si1 O3 1.625(9) .
Si1 O1 1.631(7) .
Si1 O2 1.744(9) .
Si1 O4 1.745(7) .
Si1 O4 1.773(8) 2_666
Si1 O8 1.861(9) 2_566
Si1 Si2 2.599(6) 2_666
Si1 Si2 2.639(5) .
Si1 Si1 2.702(6) 2_666
Si1 Ca1 2.998(5) 1_545
Si1 Ca1 3.019(5) 2_566
Si2 O7 1.671(9) 1_556
Si2 O6 1.696(8) 2_666
Si2 O4 1.724(9) .
Si2 O8 1.728(8) 1_655
Si2 O2 1.837(7) .
Si2 O7 1.839(9) 2_666
Si2 Si1 2.599(6) 2_666
Si2 Si2 2.620(7) 2_667
O1 B2 1.427(15) 2_656
O1 Ca1 2.468(7) 2_566
O1 Ca1 2.585(8) 1_545
O2 B2 1.509(14) .
O2 Ca1 2.514(7) 1_545
O3 B1 1.398(16) 2_566
O3 Ca1 2.505(8) 1_545
O3 Ca1 2.594(7) 2_566
O4 Si1 1.773(8) 2_666
O5 B1 1.446(16) .
O5 B2 1.455(13) 2_666
O5 Ca1 2.404(7) 2_576
O5 Ca1 2.620(9) 1_554
O6 B2 1.468(17) 2_656
O6 Si2 1.696(8) 2_666
O6 Ca1 2.373(7) 2_666
O6 Ca1 2.446(8) 1_544
O7 B1 1.577(13) 1_655
O7 Si2 1.671(9) 1_554
O7 Si2 1.839(9) 2_666
O7 Ca1 2.530(8) 2_666
O8 B1 1.477(13) 2_566
O8 Si2 1.728(8) 1_455
O8 Si1 1.861(9) 2_566
B1 O3 1.398(16) 2_566
B1 O8 1.477(13) 2_566
B1 O7 1.577(13) 1_455
B1 Ca1 2.824(12) 2_576
B1 Ca1 2.970(12) 2_566
B2 O1 1.427(15) 2_656
B2 O5 1.455(13) 2_666
B2 O6 1.468(17) 2_656
B2 Ca1 2.838(13) 1_645
B2 Ca1 2.876(13) 1_545
B2 Ca1 2.977(14) 2_667
