#------------------------------------------------------------------------------
#$Date: 2016-02-14 16:26:36 +0200 (Sun, 14 Feb 2016) $
#$Revision: 176435 $
#$URL: svn://www.crystallography.net/cod/cif/2/01/88/2018881.cif $
#------------------------------------------------------------------------------
#
# This file is available in the Crystallography Open Database (COD),
# http://www.crystallography.net/. The original data for this entry
# were provided by IUCr Journals, http://journals.iucr.org/.
#
# The file may be used within the scientific community so long as
# proper attribution is given to the journal article from which the
# data were obtained.
#
data_2018881
loop_
_publ_author_name
'Schmid, H.'
'Berset, G.'
'Monnier, A.'
_publ_section_title
;
 Cubic structure of chromium iodine borazite
;
_journal_name_full               'Acta Crystallographica C (39,1983-)'
_journal_page_first              1243
_journal_page_last               1245
_journal_volume                  43
_journal_year                    1987
_chemical_formula_sum            'B7 Cr3 I O13'
_chemical_name_systematic        'Cr3 (B7 O13 I)'
_space_group_IT_number           219
_symmetry_space_group_name_Hall  'F -4a 2 3'
_symmetry_space_group_name_H-M   'F -4 3 c'
_cell_angle_alpha                90
_cell_angle_beta                 90
_cell_angle_gamma                90
_cell_formula_units_Z            8
_cell_length_a                   12.214
_cell_length_b                   12.214
_cell_length_c                   12.214
_cell_volume                     1822.106
_citation_journal_id_ASTM        ACSCEE
_cod_data_source_file            boron4-x_327.cif
_cod_data_source_block           B7Cr3I1O13
_cod_original_formula_sum        'B7 Cr3 I1 O13'
_cod_database_code               2018881
loop_
_symmetry_equiv_pos_as_xyz
x,y,z
y+1/2,-x,-z
-x+1/2,-y+1/2,z
-y,x+1/2,-z
x,-y,-z
-y+1/2,-x,z
-x+1/2,y+1/2,-z
y,x+1/2,z
z,x,y
x+1/2,-z,-y
-z+1/2,-x+1/2,y
-x,z+1/2,-y
z,-x,-y
-x+1/2,-z,y
-z+1/2,x+1/2,-y
x,z+1/2,y
y,z,x
y,-z+1/2,-x+1/2
-z,-y,x+1/2
-y+1/2,z,-x+1/2
z+1/2,y,x
-y,-z,x
-z,y,-x+1/2
z+1/2,-y+1/2,-x+1/2
x,y+1/2,z+1/2
y+1/2,-x+1/2,-z+1/2
-x+1/2,-y+1,z+1/2
-y,x+1,-z+1/2
x,-y+1/2,-z+1/2
-y+1/2,-x+1/2,z+1/2
-x+1/2,y+1,-z+1/2
y,x+1,z+1/2
z,x+1/2,y+1/2
x+1/2,-z+1/2,-y+1/2
-z+1/2,-x+1,y+1/2
-x,z+1,-y+1/2
z,-x+1/2,-y+1/2
-x+1/2,-z+1/2,y+1/2
-z+1/2,x+1,-y+1/2
x,z+1,y+1/2
y,z+1/2,x+1/2
y,-z+1,-x+1
-z,-y+1/2,x+1
-y+1/2,z+1/2,-x+1
z+1/2,y+1/2,x+1/2
-y,-z+1/2,x+1/2
-z,y+1/2,-x+1
z+1/2,-y+1,-x+1
x+1/2,y,z+1/2
y+1,-x,-z+1/2
-x+1,-y+1/2,z+1/2
-y+1/2,x+1/2,-z+1/2
x+1/2,-y,-z+1/2
-y+1,-x,z+1/2
-x+1,y+1/2,-z+1/2
y+1/2,x+1/2,z+1/2
z+1/2,x,y+1/2
x+1,-z,-y+1/2
-z+1,-x+1/2,y+1/2
-x+1/2,z+1/2,-y+1/2
z+1/2,-x,-y+1/2
-x+1,-z,y+1/2
-z+1,x+1/2,-y+1/2
x+1/2,z+1/2,y+1/2
y+1/2,z,x+1/2
y+1/2,-z+1/2,-x+1
-z+1/2,-y,x+1
-y+1,z,-x+1
z+1,y,x+1/2
-y+1/2,-z,x+1/2
-z+1/2,y,-x+1
z+1,-y+1/2,-x+1
x+1/2,y+1/2,z
y+1,-x+1/2,-z
-x+1,-y+1,z
-y+1/2,x+1,-z
x+1/2,-y+1/2,-z
-y+1,-x+1/2,z
-x+1,y+1,-z
y+1/2,x+1,z
z+1/2,x+1/2,y
x+1,-z+1/2,-y
-z+1,-x+1,y
-x+1/2,z+1,-y
z+1/2,-x+1/2,-y
-x+1,-z+1/2,y
-z+1,x+1,-y
x+1/2,z+1,y
y+1/2,z+1/2,x
y+1/2,-z+1,-x+1/2
-z+1/2,-y+1/2,x+1/2
-y+1,z+1/2,-x+1/2
z+1,y+1/2,x
-y+1/2,-z+1/2,x
-z+1/2,y+1/2,-x+1/2
z+1,-y+1,-x+1/2
loop_
_atom_site_label
_atom_site_type_symbol
_atom_site_fract_x
_atom_site_fract_y
_atom_site_fract_z
_atom_site_occupancy
_atom_site_U_iso_or_equiv
Cr1 Cr+2 0 0.25 0.25 1 0.0
I1 I-1 0.25 0.25 0.25 1 0.0
B1 B+3 0.25 0 0 1 0.0
B2 B+3 0.0795 0.0795 0.0795 1 0.0
O1 O-2 0 0 0 1 0.0
O2 O-2 0.0195 0.0966 0.1795 1 0.0
