#------------------------------------------------------------------------------
#$Date: 2016-02-13 21:28:24 +0200 (Sat, 13 Feb 2016) $
#$Revision: 176429 $
#$URL: svn://www.crystallography.net/cod/cif/2/10/63/2106347.cif $
#------------------------------------------------------------------------------
#
# This file is available in the Crystallography Open Database (COD),
# http://www.crystallography.net/. The original data for this entry
# were provided by IUCr Journals, http://journals.iucr.org/.
#
# The file may be used within the scientific community so long as
# proper attribution is given to the journal article from which the
# data were obtained.
#
data_2106347
loop_
_publ_author_name
'Jeitschko, W.'
'Bither, T.A.'
'Bierstedt, P.E.'
_publ_section_title
;
 Crystal structure and ionic conductivity of Li boracites
;
_journal_name_full               'Acta Crystallographica B (24,1968-38,1982)'
_journal_page_first              2767
_journal_page_last               2775
_journal_volume                  33
_journal_year                    1977
_chemical_formula_sum            'B7 Cl Li4 O12'
_chemical_name_systematic        'Li4 (B7 O12) Cl'
_space_group_IT_number           219
_symmetry_space_group_name_Hall  'F -4a 2 3'
_symmetry_space_group_name_H-M   'F -4 3 c'
_cell_angle_alpha                90
_cell_angle_beta                 90
_cell_angle_gamma                90
_cell_formula_units_Z            8
_cell_length_a                   12.141
_cell_length_b                   12.141
_cell_length_c                   12.141
_cell_volume                     1789.631
_citation_journal_id_ASTM        ACBCAR
_cod_data_source_file            Jeitschko_ACBCAR_1977_606.cif
_cod_data_source_block           B7Cl1Li4O12
_cod_original_cell_volume        1789.63
_cod_original_formula_sum        'B7 Cl1 Li4 O12'
_cod_database_code               2106347
loop_
_symmetry_equiv_pos_as_xyz
x,y,z
y+1/2,-x,-z
-x+1/2,-y+1/2,z
-y,x+1/2,-z
x,-y,-z
-y+1/2,-x,z
-x+1/2,y+1/2,-z
y,x+1/2,z
z,x,y
x+1/2,-z,-y
-z+1/2,-x+1/2,y
-x,z+1/2,-y
z,-x,-y
-x+1/2,-z,y
-z+1/2,x+1/2,-y
x,z+1/2,y
y,z,x
y,-z+1/2,-x+1/2
-z,-y,x+1/2
-y+1/2,z,-x+1/2
z+1/2,y,x
-y,-z,x
-z,y,-x+1/2
z+1/2,-y+1/2,-x+1/2
x,y+1/2,z+1/2
y+1/2,-x+1/2,-z+1/2
-x+1/2,-y+1,z+1/2
-y,x+1,-z+1/2
x,-y+1/2,-z+1/2
-y+1/2,-x+1/2,z+1/2
-x+1/2,y+1,-z+1/2
y,x+1,z+1/2
z,x+1/2,y+1/2
x+1/2,-z+1/2,-y+1/2
-z+1/2,-x+1,y+1/2
-x,z+1,-y+1/2
z,-x+1/2,-y+1/2
-x+1/2,-z+1/2,y+1/2
-z+1/2,x+1,-y+1/2
x,z+1,y+1/2
y,z+1/2,x+1/2
y,-z+1,-x+1
-z,-y+1/2,x+1
-y+1/2,z+1/2,-x+1
z+1/2,y+1/2,x+1/2
-y,-z+1/2,x+1/2
-z,y+1/2,-x+1
z+1/2,-y+1,-x+1
x+1/2,y,z+1/2
y+1,-x,-z+1/2
-x+1,-y+1/2,z+1/2
-y+1/2,x+1/2,-z+1/2
x+1/2,-y,-z+1/2
-y+1,-x,z+1/2
-x+1,y+1/2,-z+1/2
y+1/2,x+1/2,z+1/2
z+1/2,x,y+1/2
x+1,-z,-y+1/2
-z+1,-x+1/2,y+1/2
-x+1/2,z+1/2,-y+1/2
z+1/2,-x,-y+1/2
-x+1,-z,y+1/2
-z+1,x+1/2,-y+1/2
x+1/2,z+1/2,y+1/2
y+1/2,z,x+1/2
y+1/2,-z+1/2,-x+1
-z+1/2,-y,x+1
-y+1,z,-x+1
z+1,y,x+1/2
-y+1/2,-z,x+1/2
-z+1/2,y,-x+1
z+1,-y+1/2,-x+1
x+1/2,y+1/2,z
y+1,-x+1/2,-z
-x+1,-y+1,z
-y+1/2,x+1,-z
x+1/2,-y+1/2,-z
-y+1,-x+1/2,z
-x+1,y+1,-z
y+1/2,x+1,z
z+1/2,x+1/2,y
x+1,-z+1/2,-y
-z+1,-x+1,y
-x+1/2,z+1,-y
z+1/2,-x+1/2,-y
-x+1,-z+1/2,y
-z+1,x+1,-y
x+1/2,z+1,y
y+1/2,z+1/2,x
y+1/2,-z+1,-x+1/2
-z+1/2,-y+1/2,x+1/2
-y+1,z+1/2,-x+1/2
z+1,y+1/2,x
-y+1/2,-z+1/2,x
-z+1/2,y+1/2,-x+1/2
z+1,-y+1,-x+1/2
loop_
_atom_site_label
_atom_site_type_symbol
_atom_site_fract_x
_atom_site_fract_y
_atom_site_fract_z
_atom_site_occupancy
_atom_site_U_iso_or_equiv
Cl1 Cl-1 0.25 0.25 0.25 1 0.0
B1 B+3 0.25 0 0 1 0.0
B2 B+3 0.10036 0.10036 0.10036 1 0.0
O1 O-2 0.02252 0.09813 0.18172 1 0.0
Li1 Li+1 0.8708 0.8708 0.8708 0.25 0.0
Li2 Li+1 0 0.25 0.25 1 0.0
