#------------------------------------------------------------------------------
#$Date: 2020-02-15 08:07:40 +0200 (Sat, 15 Feb 2020) $
#$Revision: 248205 $
#$URL: file:///home/coder/svn-repositories/cod/cif/2/24/32/2243277.cif $
#------------------------------------------------------------------------------
#
# This file is available in the Crystallography Open Database (COD),
# http://www.crystallography.net/. The original data for this entry
# were provided by IUCr Journals, http://journals.iucr.org/.
#
# The file may be used within the scientific community so long as
# proper attribution is given to the journal article from which the
# data were obtained.
#
data_2243277
loop_
_publ_author_name
'Chong, Saehwa'
'Riley, Brian J.'
'Nelson, Zayne J.'
'Perry, Samuel N.'
_publ_section_title
;
 Crystal structures and comparisons of huntite alumnium borates
 <i>RE</i>Al~3~(BO~3~)~4~ (<i>RE</i> = Tb, Dy and Ho)
;
_journal_coeditor_code           RU2069
_journal_issue                   3
_journal_name_full               'Acta Crystallographica Section E'
_journal_page_first              339
_journal_page_last               343
_journal_paper_doi               10.1107/S2056989020001802
_journal_volume                  76
_journal_year                    2020
_chemical_formula_iupac          'Dy Al3 (B O3)4'
_chemical_formula_moiety         'Dy1 Al3 B4 O12'
_chemical_formula_sum            'Al3 B4 Dy O12'
_chemical_formula_weight         478.7
_chemical_name_systematic
;
Dysprosium trialuminium tetrakis(borate)
;
_space_group_IT_number           155
_space_group_name_Hall           'R 3 2"'
_space_group_name_H-M_alt        'R 3 2 :H'
_symmetry_cell_setting           trigonal
_symmetry_space_group_name_Hall  'R 3 2"'
_symmetry_space_group_name_H-M   'R 3 2 :H'
_atom_sites_solution_primary     iterative
_cell_angle_alpha                90
_cell_angle_beta                 90
_cell_angle_gamma                120
_cell_formula_units_Z            3
_cell_length_a                   9.2938(5)
_cell_length_b                   9.2938(5)
_cell_length_c                   7.2348(4)
_cell_measurement_reflns_used    7295
_cell_measurement_temperature    100
_cell_measurement_theta_max      31.53
_cell_measurement_theta_min      3.79
_cell_volume                     541.18(5)
_computing_cell_refinement
;
JANA2006 (Pet\<r\'i\<cek <i>et al.</i>,  2014)
;
_computing_data_collection       'APEX3 (Bruker, 2012)'
_computing_data_reduction
;
SAINT (Bruker, 2012)
;
_computing_molecular_graphics
;
<i>VESTA</i> (Momma & Izumi, 2011)
;
_computing_publication_material
;
publCIF (Westrip, 2010)
;
_computing_structure_refinement
;
JANA2006 (Pet\<r\'i\<cek <i>et al.</i>,  2014)
;
_computing_structure_solution
;
SUPERFLIP (Palatinus & Chapuis, 2007)
;
_diffrn_ambient_temperature      100
_diffrn_measured_fraction_theta_full 1
_diffrn_measured_fraction_theta_max 1
_diffrn_measurement_device_type  'Bruker D8 QUEST CMOS area detector'
_diffrn_measurement_method       '\f and \w scans'
_diffrn_radiation_source         'X-ray tube'
_diffrn_radiation_type           'Mo K\a'
_diffrn_radiation_wavelength     0.71075
_diffrn_reflns_av_R_equivalents  0.0437
_diffrn_reflns_av_unetI/netI     0.0148
_diffrn_reflns_limit_h_max       13
_diffrn_reflns_limit_h_min       -12
_diffrn_reflns_limit_k_max       13
_diffrn_reflns_limit_k_min       -13
_diffrn_reflns_limit_l_max       10
_diffrn_reflns_limit_l_min       -10
_diffrn_reflns_number            7295
_diffrn_reflns_theta_full        31.53
_diffrn_reflns_theta_max         31.53
_diffrn_reflns_theta_min         3.79
_exptl_absorpt_coefficient_mu    10.812
_exptl_absorpt_correction_T_max  0.723
_exptl_absorpt_correction_T_min  0.588
_exptl_absorpt_correction_type   multi-scan
_exptl_absorpt_process_details
;
(SADABS; Krause <i>et al.</i>,  2015)
;
_exptl_crystal_colour            'Light white'
_exptl_crystal_density_diffrn    4.4062
_exptl_crystal_description       'hexagonal prism'
_exptl_crystal_F_000             663
_exptl_crystal_size_max          0.05
_exptl_crystal_size_mid          0.05
_exptl_crystal_size_min          0.03
_refine_diff_density_max         0.29
_refine_diff_density_min         -0.39
_refine_ls_abs_structure_details
;
The crystal had chiral structure. Data was refined with inversion twinning in
 JANA2006, and the twin ratio was 0.509(8):0.491(8).
;
_refine_ls_abs_structure_Flack   0.491(8)
_refine_ls_extinction_method     none
_refine_ls_goodness_of_fit_all   1.14
_refine_ls_goodness_of_fit_ref   1.14
_refine_ls_number_constraints    0
_refine_ls_number_parameters     35
_refine_ls_number_reflns         420
_refine_ls_number_restraints     0
_refine_ls_R_factor_all          0.0080
_refine_ls_R_factor_gt           0.0101
_refine_ls_shift/su_max          0.0167
_refine_ls_shift/su_mean         0.0066
_refine_ls_structure_factor_coef F
_refine_ls_weighting_details     w=1/(\s^2^(F)+0.0001F^2^)
_refine_ls_weighting_scheme      sigma
_refine_ls_wR_factor_all         0.0080
_refine_ls_wR_factor_ref         0.0101
_reflns_number_gt                420
_reflns_number_total             420
_reflns_threshold_expression     I>2\s(I)
_iucr_refine_instructions_details
;
commands
maxsc  7
end
    7    0    0    1    0
 0.103912 0.000000 0.000000 0.000000 0.000000 0.000000      100000
 0.491450                                                   1
 0.000000 0.000000 0.000000                                 000
 0.000000 0.000000 0.000000 0.000000 0.000000 0.000000      000000
 0.000000 0.000000 0.000000 0.000000 0.000000 0.000000      000000
Dy1       1  2     0.166667 0.000000 0.000000 0.000000
 0.005456 0.005456 0.006648 0.002728 0.000000 0.000000      0000101000
Al1       2  2     0.500000 0.555903 0.000000 0.000000
 0.002681 0.002273 0.004215 0.001137-0.000074-0.000148      0100111010
O1        4  2     0.500000 0.742209 0.075543 0.166667
 0.007470 0.007470 0.008238 0.002250-0.000628 0.000628      0100101110
B1        3  2     0.166667 0.666667 0.333333-0.166667
 0.006800 0.006800 0.005146 0.003400 0.000000 0.000000      0000101000
O3        4  2     1.000000 0.366914-0.115786-0.145016
 0.005845 0.006279 0.007212 0.002859-0.001056-0.001270      0111111111
O2        4  2     0.500000 0.815866 0.482532-0.166667
 0.006024 0.006024 0.007073 0.002239-0.000412 0.000412      0100101110
B2        3  2     0.500000 0.891584 0.224917 0.166667
 0.008319 0.008319 0.005776 0.006826-0.000054 0.000054      0100101110
----------------------------   s.u. block   ----------------------------
 0.000121 0.000000 0.000000 0.000000 0.000000 0.000000
 0.007859
 0.000000 0.000000 0.000000
 0.000000 0.000000 0.000000 0.000000 0.000000 0.000000
 0.000000 0.000000 0.000000 0.000000 0.000000 0.000000
Dy1                0.000000 0.000000 0.000000 0.000000
 0.000055 0.000055 0.000064 0.000027 0.000000 0.000000
Al1                0.000000 0.000096 0.000000 0.000000
 0.000227 0.000292 0.000324 0.000146 0.000099 0.000199
O1                 0.000000 0.000332 0.000332 0.000000
 0.001086 0.001086 0.000999 0.001057 0.000416 0.000416
B1                 0.000000 0.000000 0.000000 0.000000
 0.000897 0.000897 0.001259 0.000449 0.000000 0.000000
O3                 0.000000 0.000177 0.000169 0.000183
 0.000595 0.000518 0.000495 0.000442 0.000415 0.000419
O2                 0.000000 0.000202 0.000202 0.000000
 0.000573 0.000573 0.000679 0.000659 0.000285 0.000285
B2                 0.000000 0.000521 0.000521 0.000000
 0.001141 0.001141 0.000911 0.001465 0.000548 0.000548
--------------------------   Saved points   ----------------------------
    0
--------------------------   Fourier maxima   --------------------------
    1    1    1
max1      1  1     1.000000 0.502887 0.001526 0.000000      000  0  0  0
     0.29     0.21
max2      1  1     1.000000 0.568565 0.016276 0.001095      000  0  0  0
     0.21     0.11
max3      1  1     1.000000 0.488198 0.194718 0.146943      000  0  0  0
     0.17     0.11
max4      1  1     1.000000 0.706375 0.198161 0.156555      000  0  0  0
     0.18     0.09
max5      1  1     1.000000 0.430600-0.006060-0.000537      000  0  0  0
     0.26     0.09
max6      1  1     1.000000 0.334780 0.512226 0.166667      000  0  0  0
     0.12     0.08
max7      1  1     1.000000 0.074421 0.314106 0.069544      000  0  0  0
     0.15     0.07
max8      1  1     1.000000 0.027813 0.053424 0.080220      000  0  0  0
     0.25     0.07
max9      1  1     1.000000 0.524866 0.159578 0.069325      000  0  0  0
     0.16     0.06
max10     1  1     1.000000 0.035690 0.199428 0.120436      000  0  0  0
     0.12     0.06
--------------------------   Fourier minima   --------------------------
    1    1    1
min1      1  1     1.000000 0.944403 0.046450-0.008755      000  0  0  0
     0.39     0.24
min2      1  1     1.000000 0.667890 0.061838-0.004592      000  0  0  0
     0.14     0.09
min3      1  1     1.000000 0.337012 0.436838 0.039480      000  0  0  0
     0.15     0.08
min4      1  1     1.000000 0.020413 0.410164 0.084819      000  0  0  0
     0.18     0.08
min5      1  1     1.000000 0.270754 0.628634 0.052489      000  0  0  0
     0.16     0.08
min6      1  1     1.000000 0.253249 0.379847-0.013847      000  0  0  0
     0.13     0.07
min7      1  1     1.000000 0.659149 0.279566 0.053606      000  0  0  0
     0.13     0.07
min8      1  1     1.000000 0.301519 0.083476 0.097714      000  0  0  0
     0.11     0.07
min9      1  1     1.000000 0.358344 0.155379 0.069255      000  0  0  0
     0.11     0.06
min10     1  1     1.000000 0.260727 0.365650 0.129018      000  0  0  0
     0.10     0.06
------------------------------------------------------------------------
Version Jana2006
title
cell 9.2938 9.2938 7.2348 90 90 120
esdcell 0.0005 0.0005 0.0004 0 0 0
spgroup R32 155 5
lattice R
symmetry x y z
symmetry -y x-y z
symmetry -x+y -x z
symmetry y x -z
symmetry x-y -y -z
symmetry -x -x+y -z
unitsnumb 3
atlist Dy Al3 B4 O12
formtab -62
atom Dy atradius 1.77 color 49006252
atom Al atradius 1.43 color 129178214
atom B atradius 0.81 color 31162015
atom O atradius 0.74 color 254003000
twin 2
    -1.0000     0.0000     0.0000
     0.0000    -1.0000     0.0000
     0.0000     0.0000    -1.0000
roundmethod 1
end
*******************************************************************************
contour
end contour
dist
  angles 1
end dist
fourier
  maptype 6
end fourier
refine
  cycles 1000 stunstab 1 damp 0.4
end refine
;
_cod_data_source_file            ru2069sup1.cif
_cod_data_source_block           Dy-borate
_cod_original_sg_symbol_H-M      'R 3 2'
_cod_original_formula_sum        'Dy1 Al3 B4 O12'
_cod_database_code               2243277
loop_
_space_group_symop_id
_space_group_symop_operation_xyz
1 x,y,z
2 -y,x-y,z
3 -x+y,-x,z
4 y,x,-z
5 x-y,-y,-z
6 -x,-x+y,-z
7 x+2/3,y+1/3,z+1/3
8 -y+2/3,x-y+1/3,z+1/3
9 -x+y+2/3,-x+1/3,z+1/3
10 y+2/3,x+1/3,-z+1/3
11 x-y+2/3,-y+1/3,-z+1/3
12 -x+2/3,-x+y+1/3,-z+1/3
13 x+1/3,y+2/3,z+2/3
14 -y+1/3,x-y+2/3,z+2/3
15 -x+y+1/3,-x+2/3,z+2/3
16 y+1/3,x+2/3,-z+2/3
17 x-y+1/3,-y+2/3,-z+2/3
18 -x+1/3,-x+y+2/3,-z+2/3
loop_
_atom_site_type_symbol
_atom_site_label
_atom_site_fract_x
_atom_site_fract_y
_atom_site_fract_z
_atom_site_U_iso_or_equiv
_atom_site_adp_type
_atom_site_calc_flag
_atom_site_refinement_flags
_atom_site_occupancy
_atom_site_site_symmetry_multiplicity
_atom_site_disorder_assembly
_atom_site_disorder_group
Dy Dy1 0 0 0 0.00585(4) Uani d . 1 3 . .
Al Al1 0.55590(10) 0 0 0.0031(2) Uani d . 1 9 . .
O O1 0.7422(3) 0.0755(3) 0.166667 0.0084(9) Uani d . 1 9 . .
B B1 0.666667 0.333333 -0.166667 0.0062(7) Uani d . 1 3 . .
O O3 0.36691(18) -0.11579(17) -0.14502(18) 0.0065(4) Uani d . 1 18 . .
O O2 0.8159(2) 0.4825(2) -0.166667 0.0067(5) Uani d . 1 9 . .
B B2 0.8916(5) 0.2249(5) 0.166667 0.0063(10) Uani d . 1 9 . .
loop_
_atom_site_aniso_label
_atom_site_aniso_U_11
_atom_site_aniso_U_22
_atom_site_aniso_U_33
_atom_site_aniso_U_12
_atom_site_aniso_U_13
_atom_site_aniso_U_23
_atom_site_aniso_type_symbol
Dy1 0.00546(6) 0.00546(6) 0.00665(6) 0.00273(3) 0 0 Dy
Al1 0.0027(2) 0.0023(3) 0.0042(3) 0.00114(15) -0.00007(10) -0.0001(2) Al
O1 0.0075(11) 0.0075(11) 0.0082(10) 0.0022(11) -0.0006(4) 0.0006(4) O
B1 0.0068(9) 0.0068(9) 0.0051(13) 0.0034(4) 0 0 B
O3 0.0058(6) 0.0063(5) 0.0072(5) 0.0029(4) -0.0011(4) -0.0013(4) O
O2 0.0060(6) 0.0060(6) 0.0071(7) 0.0022(7) -0.0004(3) 0.0004(3) O
B2 0.0083(11) 0.0083(11) 0.0058(9) 0.0068(15) -0.0001(5) 0.0001(5) B
loop_
_atom_type_symbol
_atom_type_scat_dispersion_real
_atom_type_scat_dispersion_imag
_atom_type_scat_source
Al 0.0645 0.0514 'International Tables Vol C tables 4.2.6.8 and 6.1.1.1'
B 0.0013 0.0007 'International Tables Vol C tables 4.2.6.8 and 6.1.1.1'
Dy -0.1892 4.4098 'International Tables Vol C tables 4.2.6.8 and 6.1.1.1'
O 0.0106 0.0060 'International Tables Vol C tables 4.2.6.8 and 6.1.1.1'
loop_
_diffrn_standard_refln_index_h
_diffrn_standard_refln_index_k
_diffrn_standard_refln_index_l
? ? ?
loop_
_geom_angle_atom_site_label_1
_geom_angle_atom_site_label_2
_geom_angle_atom_site_label_3
_geom_angle_site_symmetry_1
_geom_angle_site_symmetry_2
_geom_angle_site_symmetry_3
_geom_angle
_geom_angle_publ_flag
O3 Dy1 O3 7_455 . 8_445 89.16(6) ?
O3 Dy1 O3 7_455 . 9_555 89.16(6) ?
O3 Dy1 O3 7_455 . 16_544 119.78(5) ?
O3 Dy1 O3 7_455 . 17_444 145.03(7) ?
O3 Dy1 O3 7_455 . 18_554 73.33(6) ?
O3 Dy1 O3 8_445 . 9_555 89.16(6) ?
O3 Dy1 O3 8_445 . 16_544 145.03(7) ?
O3 Dy1 O3 8_445 . 17_444 73.33(5) ?
O3 Dy1 O3 8_445 . 18_554 119.78(7) ?
O3 Dy1 O3 9_555 . 16_544 73.33(6) ?
O3 Dy1 O3 9_555 . 17_444 119.78(7) ?
O3 Dy1 O3 9_555 . 18_554 145.03(5) ?
O3 Dy1 O3 16_544 . 17_444 89.16(6) ?
O3 Dy1 O3 16_544 . 18_554 89.16(6) ?
O3 Dy1 O3 17_444 . 18_554 89.16(6) ?
Al1 Al1 Al1 8_545 . 15_654 118.02(3) ?
O2 B1 O2 . . 2_655 120.00(13) ?
O2 B1 O2 . . 3_665 120.00(13) ?
O2 B1 O2 2_655 . 3_665 120.00(13) ?
Dy1 O3 B2 13_544 . 13_444 105.29(15) ?
O1 B2 O3 . . 7_555 117.3(4) ?
O1 B2 O3 . . 4_655 117.3(4) ?
O3 B2 O3 7_555 . 4_655 125.4(3) ?
loop_
_geom_bond_atom_site_label_1
_geom_bond_atom_site_label_2
_geom_bond_site_symmetry_1
_geom_bond_site_symmetry_2
_geom_bond_distance
_geom_bond_publ_flag
Dy1 O3 . 7_455 2.3260(16) ?
Dy1 O3 . 8_445 2.3260(13) ?
Dy1 O3 . 9_555 2.326(2) ?
Dy1 O3 . 16_544 2.3260(16) ?
Dy1 O3 . 17_444 2.3260(13) ?
Dy1 O3 . 18_554 2.326(2) ?
Al1 Al1 . 8_545 2.9992(7) ?
Al1 Al1 . 15_654 2.9992(7) ?
O1 B2 . . 1.388(4) ?
B1 O2 . . 1.3866(13) ?
B1 O2 . 2_655 1.387(2) ?
B1 O2 . 3_665 1.387(2) ?
O3 B2 . 13_444 1.364(6) ?
loop_
_refln_index_h
_refln_index_k
_refln_index_l
_refln_observed_status
_refln_F_squared_meas
_refln_F_squared_calc
_refln_F_squared_sigma
-1 2 0 o 16438.80 16933.00 318.04
1 1 0 o 16466.50 16906.30 302.72
0 3 0 o 23699.60 24649.20 357.14
-2 4 0 o 32173.70 31483.00 585.72
2 2 0 o 31580.90 31520.10 529.88
-1 5 0 o 24764.60 24499.40 371.46
1 4 0 o 24885.00 24509.80 359.19
-3 6 0 o 17503.80 16854.80 339.59
3 3 0 o 16994.40 16762.10 305.84
0 6 0 o 25412.90 24411.80 403.42
-2 7 0 o 34470.40 33751.00 507.97
2 5 0 o 34025.90 33750.90 472.72
-4 8 0 o 8918.60 8713.38 174.64
4 4 0 o 8538.89 8759.50 80.33
-1 8 0 o 6584.76 6649.95 122.61
1 7 0 o 6760.73 6651.11 123.64
-3 9 0 o 9557.63 9688.41 155.90
3 6 0 o 9715.07 9695.98 156.94
0 9 0 o 22393.80 22374.00 347.98
-5 10 0 o 11798.90 11764.80 68.08
5 5 0 o 11567.30 11760.20 48.57
-2 10 0 o 6807.03 6928.39 131.63
2 8 0 o 6955.21 6929.17 124.79
-4 11 0 o 12243.40 12241.70 202.20
4 7 0 o 12336.00 12238.20 202.80
-1 11 0 o 4176.83 4304.79 42.92
1 10 0 o 4176.83 4281.89 42.92
-6 12 0 o 3009.91 2992.30 87.90
6 6 0 o 2991.39 2997.62 77.19
-3 12 0 o 5732.73 5751.90 52.29
3 9 0 o 6010.56 5743.29 42.18
-5 13 0 o 4112.00 4038.64 73.69
5 8 0 o 3880.47 4033.54 64.58
-1 1 1 o 19198.60 19950.50 291.46
0 2 1 o 36758.00 36397.70 606.77
-2 3 1 o 19883.90 20081.30 296.35
-3 2 1 o 19819.10 20137.30 289.29
-4 4 1 o 35165.00 33126.90 506.58
-1 4 1 o 31025.30 30564.80 476.66
1 3 1 o 30710.40 30584.00 441.21
-3 5 1 o 22458.60 21907.90 334.87
-5 3 1 o 21708.40 21931.70 303.50
0 5 1 o 16179.40 15934.00 249.83
-5 6 1 o 18754.10 18652.20 288.33
-6 5 1 o 18587.40 18591.50 287.17
-2 6 1 o 18522.50 17949.00 279.91
2 4 1 o 17800.20 17973.30 261.40
-7 7 1 o 4862.17 4760.86 5.43
-4 7 1 o 19439.40 19027.70 286.51
-7 4 1 o 18930.00 19034.00 263.51
-1 7 1 o 11835.90 11473.20 192.35
1 6 1 o 11493.20 11511.50 176.05
-6 8 1 o 10326.30 10525.40 168.11
-8 6 1 o 10437.50 10543.80 168.84
-3 8 1 o 8362.93 8385.94 148.34
3 5 1 o 8159.18 8332.91 139.64
0 8 1 o 7909.13 8077.85 138.09
-8 9 1 o 6112.44 6118.86 119.96
-9 8 1 o 5973.52 6125.23 111.39
-5 9 1 o 18624.40 18367.90 287.43
-9 5 1 o 18689.20 18370.90 281.10
-2 9 1 o 13743.70 13972.90 226.37
2 7 1 o 14030.80 13971.30 214.30
-10 10 1 o 5038.13 5099.49 33.90
-7 10 1 o 6955.21 7148.71 132.46
-10 7 1 o 7307.14 7143.47 134.48
-4 10 1 o 7409.02 7643.12 135.07
4 6 1 o 7603.50 7650.37 128.79
-1 10 1 o 5945.74 5956.84 111.23
1 9 1 o 5945.74 5970.11 111.23
-9 11 1 o 15401.50 15692.90 266.16
-11 9 1 o 15605.20 15679.90 260.12
-6 11 1 o 7084.87 7328.28 133.19
-11 6 1 o 7399.75 7320.04 135.02
-3 11 1 o 7121.92 7200.33 141.21
3 8 1 o 7223.79 7201.13 133.99
0 11 1 o 9076.04 9358.62 160.17
-11 12 1 o 3602.63 3725.85 69.13
-12 11 1 o 3704.51 3739.26 67.54
-8 12 1 o 4121.27 4165.17 44.47
-12 8 1 o 4241.66 4194.98 57.55
-5 12 1 o 5584.55 5782.56 35.38
5 7 1 o 5714.20 5771.61 109.92
-2 12 1 o 3491.50 3590.01 58.14
2 10 1 o 3528.54 3610.08 70.24
-10 13 1 o 4241.66 4407.63 372.71
-13 10 1 o 4676.94 4397.87 304.55
-7 13 1 o 3046.96 3269.53 65.04
-13 7 1 o 3130.31 3257.52 75.56
-4 13 1 o 6936.69 6850.14 52.25
4 9 1 o 6779.25 6848.96 76.48
0 1 2 o 18133.60 18874.90 305.43
-2 2 2 o 91779.20 91260.10 1726.81
-1 3 2 o 29321.20 29279.00 418.02
1 2 2 o 28756.20 29260.80 433.52
-3 4 2 o 23329.10 22026.90 341.20
-4 3 2 o 22847.60 21918.60 331.14
0 4 2 o 26394.60 26110.40 383.32
-5 5 2 o 33840.70 32912.90 471.29
-2 5 2 o 26172.30 25505.90 415.57
2 3 2 o 25801.90 25508.70 372.46
-4 6 2 o 20606.30 19947.90 301.60
-6 4 2 o 20208.10 19963.30 298.70
-1 6 2 o 6760.73 6809.38 108.88
1 5 2 o 6677.38 6793.20 108.33
-6 7 2 o 12123.00 12056.80 187.29
-7 6 2 o 12086.00 12053.50 194.01
-3 7 2 o 17346.40 17196.80 271.70
3 4 2 o 17087.00 17218.30 243.18
0 7 2 o 56030.70 55999.40 810.09
-8 8 2 o 8020.26 8062.07 154.01
-5 8 2 o 11752.60 11849.60 184.74
-8 5 2 o 11511.80 11837.50 183.10
-2 8 2 o 9270.53 9268.82 161.37
2 6 2 o 9289.05 9279.38 154.14
-7 9 2 o 23847.80 23772.60 358.20
-9 7 2 o 24079.30 23770.10 366.59
-4 9 2 o 12410.10 12070.10 203.28
4 5 2 o 12336.00 12066.60 195.70
-1 9 2 o 6677.38 6740.29 123.15
1 8 2 o 6723.68 6731.08 123.42
-9 10 2 o 4575.07 4596.60 49.52
-10 9 2 o 4704.73 4589.25 21.69
-6 10 2 o 5278.92 5445.46 20.55
-10 6 2 o 5390.06 5481.07 8.69
-3 10 2 o 6242.10 6273.01 112.96
3 7 2 o 6260.62 6255.87 113.07
0 10 2 o 4797.34 4761.57 14.59
-11 11 2 o 10539.30 10808.70 199.29
-8 11 2 o 4399.10 4346.15 35.84
-11 8 2 o 4463.93 4326.50 33.41
-5 11 2 o 8603.72 8749.33 157.35
5 6 2 o 8807.47 8746.78 151.08
-2 11 2 o 9390.93 9591.00 162.11
2 9 2 o 9863.25 9603.30 180.01
-10 12 2 o 5343.75 5598.87 78.35
-12 10 2 o 5566.02 5598.27 73.69
-7 12 2 o 9242.75 9522.46 168.73
-12 7 2 o 9446.50 9521.96 185.39
-4 12 2 o 5621.59 5476.61 72.44
4 8 2 o 5454.89 5481.91 40.88
-1 12 2 o 4528.76 4435.95 66.16
1 11 2 o 4417.63 4439.50 68.32
-9 13 2 o 6779.25 7089.80 76.48
-13 9 2 o 6807.03 7088.84 75.76
-6 13 2 o 8909.34 8937.71 67.54
6 7 2 o 8835.25 8938.89 44.10
0 0 3 o 490.85 745.16 54.93
-1 2 3 o 19541.30 20564.20 293.89
1 1 3 o 19670.90 20532.60 315.48
-3 3 3 o 25607.40 25521.30 377.55
0 3 3 o 18744.80 19041.00 288.27
-2 4 3 o 40758.90 40021.70 586.88
2 2 3 o 40916.30 40008.70 594.51
-4 5 3 o 12919.50 12865.20 192.93
-5 4 3 o 13002.80 12917.80 193.52
-1 5 3 o 11289.50 11380.50 174.63
1 4 3 o 11141.30 11416.10 173.61
-6 6 3 o 8001.74 7979.90 131.35
-3 6 3 o 14475.40 14271.50 231.22
3 3 3 o 13984.50 14263.00 213.98
0 6 3 o 6686.64 6680.67 115.66
-5 7 3 o 12280.40 11952.20 195.32
-7 5 3 o 12410.10 11963.60 196.20
-2 7 3 o 15771.90 15414.10 247.02
2 5 3 o 15725.60 15418.50 253.73
-7 8 3 o 9613.20 9696.30 170.94
-8 7 3 o 9539.11 9665.84 170.49
-4 8 3 o 13688.20 13586.30 226.01
4 4 3 o 13419.60 13589.40 210.06
-1 8 3 o 7603.50 7568.63 128.79
1 7 3 o 7668.33 7537.32 136.62
-9 9 3 o 12669.40 12703.10 227.03
-6 9 3 o 8650.03 8682.34 150.10
-9 6 3 o 8603.72 8669.48 149.81
-3 9 3 o 10548.60 10476.10 184.13
3 6 3 o 10900.50 10475.80 186.32
0 9 3 o 12113.70 11789.50 208.68
-8 10 3 o 4880.69 4874.19 40.08
-10 8 3 o 5028.87 4901.52 34.30
-5 10 3 o 5251.14 5162.74 22.54
5 5 3 o 5047.39 5134.42 33.50
-2 10 3 o 4852.91 4859.16 7.47
2 8 3 o 4825.12 4879.81 42.00
-10 11 3 o 4204.62 4234.21 72.15
-11 10 3 o 4241.66 4237.88 71.51
-7 11 3 o 10243.00 10306.50 189.88
-11 7 3 o 10159.60 10301.00 181.77
-4 11 3 o 8798.21 8862.15 158.50
4 7 3 o 8816.73 8863.24 166.27
-1 11 3 o 5065.92 5056.32 69.58
1 10 3 o 5075.18 5052.86 69.38
-9 12 3 o 4982.56 5107.01 71.32
-12 9 3 o 5269.66 5116.79 79.81
-6 12 3 o 6584.76 6452.63 64.21
6 6 3 o 6362.49 6486.95 86.33
-3 12 3 o 5362.28 5477.44 62.74
3 9 3 o 5603.07 5483.72 72.86
-8 13 3 o 5140.00 5116.46 651.65
-13 8 3 o 5001.09 5101.17 436.23
-5 13 3 o 3917.52 3866.83 579.60
5 8 3 o 3769.34 3849.43 383.59
-1 1 4 o 20254.40 21045.70 363.15
0 2 4 o 51140.70 49919.60 823.06
-2 3 4 o 15170.00 15501.10 235.95
-3 2 4 o 15160.70 15519.90 229.06
-4 4 4 o 26774.30 25946.70 386.14
-1 4 4 o 11659.90 11659.10 191.19
1 3 4 o 11326.50 11588.30 174.89
-3 5 4 o 18374.40 18273.00 278.86
-5 3 4 o 18346.60 18279.10 265.42
0 5 4 o 34739.00 34271.50 490.65
-5 6 4 o 7020.04 7198.60 117.76
-6 5 4 o 7029.30 7185.04 117.82
-2 6 4 o 16475.80 16783.80 265.82
2 4 4 o 16929.60 16779.30 255.11
-7 7 4 o 43824.30 42851.70 641.99
-4 7 4 o 10530.10 10407.30 176.65
-7 4 4 o 10493.00 10415.80 176.41
-1 7 4 o 8575.94 8508.41 149.64
1 6 4 o 8474.06 8507.25 141.64
-6 8 4 o 6649.59 6465.87 122.99
-8 6 4 o 6492.15 6480.86 4.16
-3 8 4 o 9427.97 9406.54 169.83
3 5 4 o 9390.93 9400.96 169.61
0 8 4 o 4445.41 4460.16 34.13
-8 9 4 o 5575.28 5715.11 109.15
-9 8 4 o 5667.90 5710.32 71.38
-5 9 4 o 10761.60 10638.90 185.45
-9 5 4 o 10650.50 10638.20 192.27
-2 9 4 o 19902.50 19758.50 338.62
2 7 4 o 20152.50 19763.30 304.98
-10 10 4 o 4084.22 4205.47 109.22
-7 10 4 o 6205.05 6110.93 32.92
-10 7 4 o 6084.65 6095.25 38.95
-4 10 4 o 5982.78 5984.26 119.25
4 6 4 o 6038.35 6019.87 41.00
-1 10 4 o 5204.83 5050.24 66.51
1 9 4 o 5149.27 5036.50 51.18
-9 11 4 o 8103.61 8218.38 74.64
-11 9 4 o 7992.48 8227.66 78.07
-6 11 4 o 7936.91 7915.06 29.40
-11 6 4 o 7723.90 7906.56 42.90
-3 11 4 o 4297.23 4372.50 83.35
3 8 4 o 4352.80 4351.31 69.53
-8 12 4 o 4593.59 4555.97 64.83
-12 8 4 o 4612.11 4559.85 90.94
-5 12 4 o 6362.49 6352.15 70.46
5 7 4 o 6343.97 6349.74 86.73
0 1 5 o 14040.10 14485.20 250.36
-2 2 5 o 17346.40 17317.60 293.11
-1 3 5 o 11243.20 11579.80 181.30
1 2 5 o 11437.70 11629.10 182.61
-3 4 5 o 12465.70 12681.00 196.58
-4 3 5 o 12484.20 12682.90 183.15
0 4 5 o 22384.50 22261.50 334.34
-5 5 5 o 14530.90 14369.50 224.63
-2 5 5 o 12447.10 12431.30 196.45
2 3 5 o 12336.00 12452.30 188.78
-4 6 5 o 12400.80 12262.80 203.22
-6 4 5 o 12410.10 12263.90 196.20
-1 6 5 o 11150.60 11295.50 180.69
1 5 5 o 11122.80 11257.60 180.51
-6 7 5 o 6584.76 6493.31 122.61
-7 6 5 o 6594.02 6519.43 122.67
-3 7 5 o 9270.53 9084.32 168.90
3 4 5 o 9113.09 9085.02 160.40
0 7 5 o 4491.72 4428.73 32.30
-8 8 5 o 3389.62 3296.44 46.12
-5 8 5 o 5640.11 5688.78 32.70
-8 5 5 o 5649.38 5655.16 32.23
-2 8 5 o 6066.13 5947.83 39.79
2 6 5 o 6140.22 5964.84 120.11
-7 9 5 o 9696.55 9673.10 171.45
-9 7 5 o 9622.46 9677.50 186.36
-4 9 5 o 11863.70 12017.00 214.65
4 5 5 o 12095.20 12018.20 208.56
-1 9 5 o 4908.47 4886.62 72.81
1 8 5 o 5010.35 4895.14 55.07
-9 10 5 o 4991.82 5032.27 97.57
-10 9 5 o 4973.30 5034.20 71.51
-6 10 5 o 6473.63 6640.25 9.36
-10 6 5 o 6686.64 6653.64 37.57
-3 10 5 o 5630.85 5563.19 55.43
3 7 5 o 5667.90 5555.99 31.27
0 10 5 o 3750.81 3610.44 66.79
-8 11 5 o 5825.34 5673.40 67.57
-11 8 5 o 5695.68 5670.64 70.73
-5 11 5 o 5945.74 5958.41 64.42
5 6 5 o 5945.74 5945.64 80.41
-2 11 5 o 10418.90 10521.10 206.44
2 9 5 o 10493.00 10513.70 199.03
-7 12 5 o 2833.95 2823.44 78.91
-12 7 5 o 2787.64 2814.18 79.39
0 0 6 o 73034.40 71637.90 563.78
-1 2 6 o 7955.43 7845.26 145.91
1 1 6 o 7677.59 7825.85 144.31
-3 3 6 o 9113.09 9209.19 153.01
0 3 6 o 13512.20 13982.30 203.87
-2 4 6 o 16438.80 16163.20 258.54
2 2 6 o 16411.00 16171.80 244.71
-4 5 6 o 9946.60 9902.75 180.50
-5 4 6 o 9779.90 9902.62 164.56
-1 5 6 o 9270.53 9634.90 154.02
1 4 6 o 9409.45 9652.63 154.93
-6 6 6 o 10465.20 10302.10 183.62
-3 6 6 o 6371.75 6547.02 121.40
3 3 6 o 6232.83 6503.07 112.91
0 6 6 o 12660.20 12463.90 219.48
-5 7 6 o 20467.40 20435.20 320.88
-7 5 6 o 20661.90 20432.00 315.35
-2 7 6 o 15114.40 15094.40 256.99
2 5 6 o 15299.60 15099.80 250.91
-7 8 6 o 3463.72 3305.17 44.48
-8 7 6 o 3297.01 3303.49 48.05
-4 8 6 o 5140.00 5064.58 51.45
4 4 6 o 5010.35 5091.81 35.09
-1 8 6 o 5843.86 5744.29 67.10
1 7 6 o 5871.65 5743.72 47.56
-9 9 6 o 12623.10 12461.80 226.75
-6 9 6 o 6890.39 7020.47 54.02
-9 6 6 o 7010.78 7031.63 10.60
-3 9 6 o 4491.72 4574.59 66.89
3 6 6 o 4602.85 4568.52 48.76
0 9 6 o 13864.10 13867.00 241.79
-8 10 6 o 4639.90 4567.19 63.86
-10 8 6 o 4751.03 4562.88 61.42
-5 10 6 o 6649.59 6540.22 62.22
5 5 6 o 6594.02 6537.75 42.09
-2 10 6 o 3741.55 3748.90 53.39
2 8 6 o 3797.12 3754.17 52.23
-7 11 6 o 6473.63 6529.85 47.24
-11 7 6 o 6390.28 6533.08 20.03
-4 11 6 o 8372.19 8443.34 156.00
4 7 6 o 8427.76 8437.39 156.32
-1 1 7 o 4213.88 4330.28 17.12
0 2 7 o 14994.00 14966.00 241.76
-2 3 7 o 8048.04 8245.35 146.46
-3 2 7 o 7927.65 8253.87 130.87
-4 4 7 o 9409.45 9441.28 154.93
-1 4 7 o 9159.40 9400.23 168.24
1 3 7 o 9011.22 9388.62 145.15
-3 5 7 o 8659.29 8677.17 157.68
-5 3 7 o 8603.72 8689.44 149.81
0 5 7 o 4473.19 4349.60 52.17
-5 6 7 o 5779.03 5974.49 24.60
-6 5 7 o 5927.21 5945.03 9.88
-2 6 7 o 7473.84 7752.79 54.34
2 4 7 o 7714.64 7773.03 152.32
-7 7 7 o 3556.33 3454.52 69.83
-4 7 7 o 9631.72 9581.68 61.78
-7 4 7 o 9566.89 9593.02 170.66
-1 7 7 o 5501.19 5536.87 39.02
1 6 7 o 5658.64 5555.31 31.75
-6 8 7 o 5473.41 5549.74 89.69
-8 6 7 o 5667.90 5555.19 31.27
-3 8 7 o 4639.90 4706.59 77.79
3 5 7 o 4676.94 4674.88 46.65
0 8 7 o 5204.83 5092.50 25.49
-8 9 7 o 3574.85 3441.20 56.64
-9 8 7 o 3584.11 3443.97 41.60
-5 9 7 o 7872.08 7787.59 145.43
-9 5 7 o 7835.03 7785.34 137.63
-2 9 7 o 6742.21 6702.07 131.27
2 7 7 o 6705.16 6696.62 123.31
-7 10 7 o 3232.18 3196.55 49.32
-10 7 7 o 3222.92 3192.35 34.11
-4 10 7 o 3537.81 3385.87 57.31
4 6 7 o 3602.63 3389.37 41.13
0 1 8 o 4695.46 4704.56 22.27
-2 2 8 o 23412.50 23420.10 355.11
-1 3 8 o 7205.27 7498.52 133.88
1 2 8 o 7455.32 7491.10 127.85
-3 4 8 o 5297.45 5596.16 19.11
-4 3 8 o 5528.98 5560.62 108.90
0 4 8 o 7890.60 8091.10 145.54
-5 5 8 o 9844.73 9896.81 179.90
-2 5 8 o 8853.77 8777.32 174.28
2 3 8 o 8575.94 8775.33 157.19
-4 6 8 o 6547.72 6590.44 65.31
-6 4 8 o 6464.37 6605.53 11.07
-1 6 8 o 3037.70 3176.95 65.17
1 5 8 o 3111.79 3164.80 64.14
-6 7 8 o 5538.24 5478.65 101.20
-7 6 8 o 5667.90 5478.82 101.96
-3 7 8 o 8344.40 8037.97 148.23
3 4 8 o 8186.96 8047.72 147.28
0 7 8 o 18244.70 18215.20 258.27
-5 8 8 o 4065.70 3957.99 25.54
-8 5 8 o 3926.78 3949.42 31.26
-2 8 8 o 4723.25 4758.43 20.47
2 6 8 o 4899.21 4763.09 97.59
-4 9 8 o 5667.90 5601.17 112.06
4 5 8 o 5593.81 5602.22 87.49
0 0 9 o 4102.74 4247.71 109.02
-1 2 9 o 4584.33 4699.86 28.24
1 1 9 o 4723.25 4691.37 20.47
-3 3 9 o 6649.59 6607.79 122.99
0 3 9 o 3991.61 4035.89 47.80
-2 4 9 o 8705.59 8593.33 165.64
2 2 9 o 8437.02 8597.26 156.38
-4 5 9 o 4982.56 5010.69 90.30
-5 4 9 o 5130.74 5035.04 91.19
-1 5 9 o 4510.24 4434.83 87.60
1 4 9 o 4528.76 4445.30 87.70
-6 6 9 o 3750.81 3658.58 9.27
-3 6 9 o 4371.32 4419.44 86.84
3 3 9 o 4426.89 4407.70 87.14
0 6 9 o 2667.25 2638.74 31.72
-5 7 9 o 3176.62 3189.98 35.35
-7 5 9 o 3185.88 3195.80 35.11
-2 7 9 o 5556.76 5571.89 101.31
2 5 9 o 5593.81 5570.79 94.07
-1 1 10 o 5992.04 5918.13 96.67
0 2 10 o 10807.90 10964.10 151.40
-2 3 10 o 3389.62 3335.34 65.74
-3 2 10 o 3426.67 3348.20 65.94
-4 4 10 o 7881.34 7868.39 116.69
-1 4 10 o 2361.62 2327.07 22.63
1 3 10 o 2324.58 2310.05 23.73

_cod_database_fobs_code 2243277
