#------------------------------------------------------------------------------
#$Date: 2020-02-15 08:07:40 +0200 (Sat, 15 Feb 2020) $
#$Revision: 248205 $
#$URL: file:///home/coder/svn-repositories/cod/cif/2/24/32/2243276.cif $
#------------------------------------------------------------------------------
#
# This file is available in the Crystallography Open Database (COD),
# http://www.crystallography.net/. The original data for this entry
# were provided by IUCr Journals, http://journals.iucr.org/.
#
# The file may be used within the scientific community so long as
# proper attribution is given to the journal article from which the
# data were obtained.
#
data_2243276
loop_
_publ_author_name
'Chong, Saehwa'
'Riley, Brian J.'
'Nelson, Zayne J.'
'Perry, Samuel N.'
_publ_section_title
;
 Crystal structures and comparisons of huntite alumnium borates
 <i>RE</i>Al~3~(BO~3~)~4~ (<i>RE</i> = Tb, Dy and Ho)
;
_journal_coeditor_code           RU2069
_journal_issue                   3
_journal_name_full               'Acta Crystallographica Section E'
_journal_page_first              339
_journal_page_last               343
_journal_paper_doi               10.1107/S2056989020001802
_journal_volume                  76
_journal_year                    2020
_chemical_formula_iupac          'Tb Al3 (B O3)4'
_chemical_formula_moiety         'Tb1 Al3 B4 O12'
_chemical_formula_sum            'Al3 B4 O12 Tb'
_chemical_formula_weight         475.1
_chemical_name_systematic
;
Terbium trialuminium tetrakis(borate)
;
_space_group_IT_number           155
_space_group_name_Hall           'R 3 2"'
_space_group_name_H-M_alt        'R 3 2 :H'
_symmetry_cell_setting           trigonal
_symmetry_space_group_name_Hall  'R 3 2"'
_symmetry_space_group_name_H-M   'R 3 2 :H'
_atom_sites_solution_primary     iterative
_cell_angle_alpha                90
_cell_angle_beta                 90
_cell_angle_gamma                120
_cell_formula_units_Z            3
_cell_length_a                   9.2992(8)
_cell_length_b                   9.2992(8)
_cell_length_c                   7.2588(7)
_cell_measurement_reflns_used    6957
_cell_measurement_temperature    100
_cell_measurement_theta_max      33.21
_cell_measurement_theta_min      3.78
_cell_volume                     543.61(8)
_computing_cell_refinement
;
JANA2006 (Pet\<r\'i\<cek <i>et al.</i>,  2014)
;
_computing_data_collection       'APEX3 (Bruker, 2012)'
_computing_data_reduction
;
SAINT (Bruker, 2012)
;
_computing_molecular_graphics
;
<i>VESTA</i> (Momma & Izumi, 2011)
;
_computing_publication_material
;
publCIF (Westrip, 2010)
;
_computing_structure_refinement
;
JANA2006 (Pet\<r\'i\<cek <i>et al.</i>,  2014)
;
_computing_structure_solution
;
SUPERFLIP (Palatinus & Chapuis, 2007)
;
_diffrn_ambient_temperature      100
_diffrn_measured_fraction_theta_full 1
_diffrn_measured_fraction_theta_max 1
_diffrn_measurement_device_type  'Bruker D8 QUEST CMOS area detector'
_diffrn_measurement_method       '\f and \w scans'
_diffrn_radiation_source         'X-ray tube'
_diffrn_radiation_type           'Mo K\a'
_diffrn_radiation_wavelength     0.71075
_diffrn_reflns_av_R_equivalents  0.113
_diffrn_reflns_av_sigmaI/netI    0.0333
_diffrn_reflns_limit_h_max       14
_diffrn_reflns_limit_h_min       -13
_diffrn_reflns_limit_k_max       13
_diffrn_reflns_limit_k_min       -14
_diffrn_reflns_limit_l_max       11
_diffrn_reflns_limit_l_min       -11
_diffrn_reflns_number            6957
_diffrn_reflns_theta_full        33.21
_diffrn_reflns_theta_max         33.21
_diffrn_reflns_theta_min         3.78
_exptl_absorpt_coefficient_mu    10.211
_exptl_absorpt_correction_T_max  0.7465
_exptl_absorpt_correction_T_min  0.5296
_exptl_absorpt_correction_type   multi-scan
_exptl_absorpt_process_details
;
(SADABS; Krause <i>et al.</i>,  2015)
;
_exptl_crystal_colour            'Light white'
_exptl_crystal_density_diffrn    4.3538
_exptl_crystal_description       'hexagonal prism'
_exptl_crystal_F_000             660
_exptl_crystal_size_max          0.03
_exptl_crystal_size_mid          0.03
_exptl_crystal_size_min          0.02
_refine_diff_density_max         0.59
_refine_diff_density_min         -0.88
_refine_ls_abs_structure_details
;
Data was refined with inversion twinning in JANA2006, and the twin ratio was
 0.51(2):0.49(2).
;
_refine_ls_abs_structure_Flack   0.49(2)
_refine_ls_extinction_method     none
_refine_ls_goodness_of_fit_all   1.08
_refine_ls_goodness_of_fit_ref   1.08
_refine_ls_number_constraints    0
_refine_ls_number_parameters     32
_refine_ls_number_reflns         270
_refine_ls_number_restraints     0
_refine_ls_R_factor_all          0.0197
_refine_ls_R_factor_gt           0.0197
_refine_ls_shift/su_max          0.0407
_refine_ls_shift/su_mean         0.0138
_refine_ls_structure_factor_coef F
_refine_ls_weighting_details     w=1/(\s^2^(F)+0.0001F^2^)
_refine_ls_weighting_scheme      sigma
_refine_ls_wR_factor_all         0.0212
_refine_ls_wR_factor_ref         0.0212
_reflns_number_gt                270
_reflns_number_total             270
_reflns_threshold_expression     I>2\s(I)
_iucr_refine_instructions_details
;
commands
maxsc  8
end
    7    0    0    1    0
 0.099452 0.000000 0.000000 0.000000 0.000000 0.000000      100000
 0.000000 0.492543                                          01
 0.000000 0.000000 0.000000                                 000
 0.000000 0.000000 0.000000 0.000000 0.000000 0.000000      000000
 0.000000 0.000000 0.000000 0.000000 0.000000 0.000000      000000
Tb1       1  2     0.166667 0.000000 0.000000 0.000000
 0.010267 0.010267 0.013259 0.005133 0.000000 0.000000      0000101000
Al1       2  2     0.500000 0.555660 0.000000 0.000000
 0.003989 0.003646 0.007837 0.001823 0.000477 0.000954      0100111010
B1        3  2     0.166667 0.666667 0.333333-0.166667
 0.004105 0.004105 0.008018 0.002053 0.000000 0.000000      0000101000
O1        4  2     0.500000 0.741820 0.075154 0.166667
 0.007063 0.007063 0.017254 0.000371 0.000823-0.000823      0100101110
O2        4  2     1.000000 0.366756-0.115122-0.144807
 0.008166 0.008571 0.012287 0.003909 0.000318-0.001318      0111111111
O3        4  2     0.500000 0.815148 0.481814-0.166667
 0.007513 0.007513 0.011248 0.003099-0.000986 0.000986      0100101110
B2        3  1     0.500000 0.891162 0.224495 0.166667
 0.006594 0.000000 0.000000 0.000000 0.000000 0.000000      0100100000
----------------------------   s.u. block   ----------------------------
 0.000250 0.000000 0.000000 0.000000 0.000000 0.000000
 0.000000 0.024835
 0.000000 0.000000 0.000000
 0.000000 0.000000 0.000000 0.000000 0.000000 0.000000
 0.000000 0.000000 0.000000 0.000000 0.000000 0.000000
Tb1                0.000000 0.000000 0.000000 0.000000
 0.000160 0.000160 0.000206 0.000080 0.000000 0.000000
Al1                0.000000 0.000242 0.000000 0.000000
 0.000637 0.000831 0.000872 0.000416 0.000294 0.000587
B1                 0.000000 0.000000 0.000000 0.000000
 0.002324 0.002324 0.003387 0.001162 0.000000 0.000000
O1                 0.000000 0.000710 0.000710 0.000000
 0.002185 0.002185 0.002707 0.002439 0.000916 0.000916
O2                 0.000000 0.000467 0.000454 0.000495
 0.001608 0.001549 0.001457 0.001303 0.001208 0.001163
O3                 0.000000 0.000535 0.000535 0.000000
 0.001536 0.001536 0.001955 0.001779 0.000813 0.000813
B2                 0.000000 0.001059 0.001059 0.000000
 0.001229 0.000000 0.000000 0.000000 0.000000 0.000000
--------------------------   Saved points   ----------------------------
    0
--------------------------   Fourier maxima   --------------------------
    1    1    1
max1      1  1     1.000000 0.424439-0.002535 0.000000      000  0  0  0
     0.59     0.23
max2      1  1     1.000000 0.417417 0.471656 0.037521      000  0  0  0
     0.36     0.19
max3      1  1     1.000000 0.570645 0.044413 0.057162      000  0  0  0
     0.36     0.16
max4      1  1     1.000000 0.388268 0.519669 0.050413      000  0  0  0
     0.32     0.13
max5      1  1     1.000000 0.598376 0.001773 0.000000      000  0  0  0
     0.31     0.13
max6      1  1     1.000000 0.535900 0.142302 0.033737      000  0  0  0
     0.38     0.13
max7      1  1     1.000000 0.077766 0.459766 0.092934      000  0  0  0
     0.38     0.13
max8      1  1     1.000000 0.831466 0.164799 0.166667      000  0  0  0
     0.54     0.12
max9      1  1     1.000000 0.539592 0.178822 0.120623      000  0  0  0
     0.38     0.12
max10     1  1     1.000000 0.134141 0.514405 0.060113      000  0  0  0
     0.29     0.11
--------------------------   Fourier minima   --------------------------
    1    1    1
min1      1  1     1.000000 0.666722 0.333388 0.062826      000  0  0  0
     0.89     0.29
min2      1  1     1.000000 0.632566 0.267791 0.151877      000  0  0  0
     0.73     0.25
min3      1  1     1.000000 0.069614 0.031464 0.083735      000  0  0  0
     0.78     0.23
min4      1  1     1.000000 0.117247 0.000381 0.000000      000  0  0  0
     0.49     0.15
min5      1  1     1.000000 0.313858 0.636931 0.078177      000  0  0  0
     0.35     0.15
min6      1  1     1.000000 0.884337-0.001722 0.000000      000  0  0  0
     0.61     0.13
min7      1  1     1.000000 0.428058 0.181058-0.001165      000  0  0  0
     0.33     0.11
min8      1  1     1.000000 0.696885 0.193203-0.011343      000  0  0  0
     0.26     0.11
min9      1  1     1.000000 0.255549 0.001647 0.000000      000  0  0  0
     0.40     0.10
min10     1  1     1.000000 0.344625 0.437088 0.045300      000  0  0  0
     0.38     0.10
------------------------------------------------------------------------
Version Jana2006
title
cell 9.2992 9.2992 7.2588 90 90 120
esdcell 0.0008 0.0008 0.0007 0 0 0
spgroup R32 155 5
lattice R
symmetry x y z
symmetry -y x-y z
symmetry -x+y -x z
symmetry y x -z
symmetry x-y -y -z
symmetry -x -x+y -z
unitsnumb 3
atlist Tb Al3 B4 O12
formtab -62
atom Tb atradius 1.77 color 113004254
atom Al atradius 1.43 color 129178214
atom B atradius 0.81 color 31162015
atom O atradius 0.74 color 254003000
twin 2
    -1.0000     0.0000     0.0000
     0.0000    -1.0000     0.0000
     0.0000     0.0000    -1.0000
roundmethod 1
end
*******************************************************************************
contour
end contour
dist
  angles 1
end dist
fourier
  maptype 6
end fourier
refine
  cycles 1000 damp 0.2 siglevel 2
end refine
;
_cod_data_source_file            ru2069sup1.cif
_cod_data_source_block           Tb-borate
_cod_original_sg_symbol_H-M      'R 3 2'
_cod_original_formula_sum        'Tb1 Al3 B4 O12'
_cod_database_code               2243276
loop_
_space_group_symop_id
_space_group_symop_operation_xyz
1 x,y,z
2 -y,x-y,z
3 -x+y,-x,z
4 y,x,-z
5 x-y,-y,-z
6 -x,-x+y,-z
7 x+2/3,y+1/3,z+1/3
8 -y+2/3,x-y+1/3,z+1/3
9 -x+y+2/3,-x+1/3,z+1/3
10 y+2/3,x+1/3,-z+1/3
11 x-y+2/3,-y+1/3,-z+1/3
12 -x+2/3,-x+y+1/3,-z+1/3
13 x+1/3,y+2/3,z+2/3
14 -y+1/3,x-y+2/3,z+2/3
15 -x+y+1/3,-x+2/3,z+2/3
16 y+1/3,x+2/3,-z+2/3
17 x-y+1/3,-y+2/3,-z+2/3
18 -x+1/3,-x+y+2/3,-z+2/3
loop_
_atom_site_type_symbol
_atom_site_label
_atom_site_fract_x
_atom_site_fract_y
_atom_site_fract_z
_atom_site_U_iso_or_equiv
_atom_site_adp_type
_atom_site_calc_flag
_atom_site_refinement_flags
_atom_site_occupancy
_atom_site_site_symmetry_multiplicity
_atom_site_disorder_assembly
_atom_site_disorder_group
Tb Tb1 0 0 0 0.01126(13) Uani d . 1 3 . .
Al Al1 0.5557(2) 0 0 0.0052(6) Uani d . 1 9 . .
B B1 0.666667 0.333333 -0.166667 0.0054(19) Uani d . 1 3 . .
O O1 0.7418(7) 0.0752(7) 0.166667 0.012(2) Uani d . 1 9 . .
O O2 0.3668(5) -0.1151(5) -0.1448(5) 0.0098(12) Uani d . 1 18 . .
O O3 0.8151(5) 0.4818(5) -0.166667 0.0091(14) Uani d . 1 9 . .
B B2 0.8912(11) 0.2245(11) 0.166667 0.0066(12) Uiso d . 1 9 . .
loop_
_atom_site_aniso_label
_atom_site_aniso_U_11
_atom_site_aniso_U_22
_atom_site_aniso_U_33
_atom_site_aniso_U_12
_atom_site_aniso_U_13
_atom_site_aniso_U_23
_atom_site_aniso_type_symbol
Tb1 0.01027(16) 0.01027(16) 0.0133(2) 0.00513(8) 0 0 Tb
Al1 0.0040(6) 0.0036(8) 0.0078(9) 0.0018(4) 0.0005(3) 0.0010(6) Al
B1 0.004(2) 0.004(2) 0.008(3) 0.0021(12) 0 0 B
O1 0.007(2) 0.007(2) 0.017(3) 0.000(2) 0.0008(9) -0.0008(9) O
O2 0.0082(16) 0.0086(15) 0.0123(15) 0.0039(13) 0.0003(12) -0.0013(12) O
O3 0.0075(15) 0.0075(15) 0.011(2) 0.0031(18) -0.0010(8) 0.0010(8) O
loop_
_atom_type_symbol
_atom_type_scat_dispersion_real
_atom_type_scat_dispersion_imag
_atom_type_scat_source
Al 0.0645 0.0514 'International Tables Vol C tables 4.2.6.8 and 6.1.1.1'
B 0.0013 0.0007 'International Tables Vol C tables 4.2.6.8 and 6.1.1.1'
O 0.0106 0.0060 'International Tables Vol C tables 4.2.6.8 and 6.1.1.1'
Tb -0.1723 4.1537 'International Tables Vol C tables 4.2.6.8 and 6.1.1.1'
loop_
_diffrn_standard_refln_index_h
_diffrn_standard_refln_index_k
_diffrn_standard_refln_index_l
? ? ?
loop_
_geom_angle_atom_site_label_1
_geom_angle_atom_site_label_2
_geom_angle_atom_site_label_3
_geom_angle_site_symmetry_1
_geom_angle_site_symmetry_2
_geom_angle_site_symmetry_3
_geom_angle
_geom_angle_publ_flag
O2 Tb1 O2 7_455 . 8_445 89.15(16) ?
O2 Tb1 O2 7_455 . 9_555 89.15(16) ?
O2 Tb1 O2 7_455 . 16_544 119.88(12) ?
O2 Tb1 O2 7_455 . 17_444 144.93(19) ?
O2 Tb1 O2 7_455 . 18_554 73.32(15) ?
O2 Tb1 O2 8_445 . 9_555 89.15(16) ?
O2 Tb1 O2 8_445 . 16_544 144.93(19) ?
O2 Tb1 O2 8_445 . 17_444 73.32(14) ?
O2 Tb1 O2 8_445 . 18_554 119.88(18) ?
O2 Tb1 O2 9_555 . 16_544 73.32(15) ?
O2 Tb1 O2 9_555 . 17_444 119.88(18) ?
O2 Tb1 O2 9_555 . 18_554 144.93(12) ?
O2 Tb1 O2 16_544 . 17_444 89.15(16) ?
O2 Tb1 O2 16_544 . 18_554 89.15(16) ?
O2 Tb1 O2 17_444 . 18_554 89.15(16) ?
O3 B1 O3 . . 2_655 120.0(4) ?
O3 B1 O3 . . 3_665 120.0(4) ?
O3 B1 O3 2_655 . 3_665 120.0(4) ?
Tb1 O2 B2 13_544 . 13_444 105.0(3) ?
O1 B2 O2 . . 7_555 117.7(9) ?
O1 B2 O2 . . 4_655 117.7(9) ?
O2 B2 O2 7_555 . 4_655 124.7(6) ?
loop_
_geom_bond_atom_site_label_1
_geom_bond_atom_site_label_2
_geom_bond_site_symmetry_1
_geom_bond_site_symmetry_2
_geom_bond_distance
_geom_bond_publ_flag
Tb1 O2 . 7_455 2.336(4) ?
Tb1 O2 . 8_445 2.336(4) ?
Tb1 O2 . 9_555 2.336(6) ?
Tb1 O2 . 16_544 2.336(4) ?
Tb1 O2 . 17_444 2.336(4) ?
Tb1 O2 . 18_554 2.336(6) ?
B1 O3 . . 1.381(4) ?
B1 O3 . 2_655 1.381(6) ?
B1 O3 . 3_665 1.381(6) ?
O1 B2 . . 1.389(8) ?
O2 B2 . 13_444 1.362(12) ?
loop_
_refln_index_h
_refln_index_k
_refln_index_l
_refln_observed_status
_refln_F_squared_meas
_refln_F_squared_calc
_refln_F_squared_sigma
-1 2 0 o 14569.40 15910.10 232.54
0 3 0 o 21950.10 23232.80 343.76
-2 4 0 o 28683.80 29603.00 475.20
-1 5 0 o 21434.50 22291.00 303.32
-3 6 0 o 15883.80 15701.40 394.31
0 6 0 o 21333.40 21227.30 485.31
-2 7 0 o 30190.30 30055.40 434.76
-4 8 0 o 7138.09 7503.88 333.65
-1 8 0 o 4842.98 5278.12 192.10
-3 9 0 o 7906.50 7819.07 262.88
0 9 0 o 18320.40 18761.50 657.19
-5 10 0 o 8139.04 9216.74 414.54
-2 10 0 o 5065.41 5105.84 283.10
-4 11 0 o 9544.41 9430.28 333.65
-1 11 0 o 3285.95 2955.32 272.99
-6 12 0 o 2012.01 1894.65 384.20
-3 12 0 o 4398.11 3972.98 333.65
0 12 0 o 3478.05 3713.05 333.65
-5 13 0 o 3073.62 2647.78 222.43
-2 13 0 o 5105.86 5146.74 333.65
-7 14 0 o 10373.50 9573.64 485.31
-1 1 1 o 17916.00 18760.00 303.32
0 2 1 o 35528.70 34541.90 556.08
-2 3 1 o 17936.20 18698.50 222.43
-4 4 1 o 31171.00 31166.40 515.64
-1 4 1 o 28643.40 28270.40 333.65
-3 5 1 o 19897.70 19793.40 293.21
0 5 1 o 13801.00 13984.70 353.87
-5 6 1 o 16439.80 16535.50 283.10
-2 6 1 o 15711.90 15934.10 262.88
-7 7 1 o 4013.91 3517.82 252.76
-4 7 1 o 16874.60 16352.90 313.43
-1 7 1 o 9524.19 9738.29 242.65
-6 8 1 o 8685.01 8557.19 252.76
-3 8 1 o 7148.20 7274.54 232.54
0 8 1 o 6157.36 6148.74 353.87
-8 9 1 o 4479.00 4496.74 222.43
-5 9 1 o 16591.50 15235.00 394.31
-2 9 1 o 11141.90 11175.40 303.32
-10 10 1 o 3579.16 3476.48 545.97
-7 10 1 o 5277.74 5136.45 272.99
-4 10 1 o 5530.50 5781.45 252.76
-1 10 1 o 4307.12 4105.19 242.65
-9 11 1 o 11334.00 12097.30 454.98
-6 11 1 o 6015.81 5363.21 323.54
-3 11 1 o 5014.86 5128.67 262.88
0 11 1 o 7289.75 6946.34 414.54
-11 12 1 o 2375.99 2326.20 222.43
-8 12 1 o 3053.40 3046.82 232.54
-5 12 1 o 3771.26 3926.15 272.99
-2 12 1 o 2386.10 2372.60 202.21
-10 13 1 o 2820.86 2775.41 212.32
-7 13 1 o 2092.90 2075.93 171.88
-4 13 1 o 4873.31 4639.61 283.10
-9 14 1 o 2527.65 2594.95 202.21
-6 14 1 o 3528.60 3420.94 272.99
0 1 2 o 17167.80 17591.20 232.54
-2 2 2 o 91814.40 87862.10 1243.60
-1 3 2 o 27147.00 27326.40 303.32
-3 4 2 o 21080.60 20509.40 293.21
0 4 2 o 23962.10 23328.10 475.20
-5 5 2 o 29967.80 29449.50 576.30
-2 5 2 o 23537.50 22804.60 333.65
-4 6 2 o 17734.00 17601.70 283.10
-1 6 2 o 5672.05 5695.16 161.77
-6 7 2 o 9857.84 10033.20 262.88
-3 7 2 o 14953.60 14774.10 283.10
0 7 2 o 48399.50 49596.80 960.51
-8 8 2 o 6248.36 6347.42 323.54
-5 8 2 o 9544.41 9516.95 272.99
-2 8 2 o 7117.87 7329.92 242.65
-7 9 2 o 20403.20 19929.80 444.87
-4 9 2 o 9787.07 9817.09 323.54
-1 9 2 o 5075.53 5048.17 232.54
-9 10 2 o 3407.27 3189.82 222.43
-6 10 2 o 4155.46 4220.70 222.43
-3 10 2 o 4610.44 4637.21 232.54
0 10 2 o 3346.61 3207.66 313.43
-11 11 2 o 8179.48 7862.40 374.09
-8 11 2 o 2921.97 3055.77 272.99
-5 11 2 o 6642.67 6506.07 343.76
-2 11 2 o 6986.43 7191.71 272.99
-10 12 2 o 4115.02 3694.31 252.76
-7 12 2 o 6885.32 6896.28 333.65
-4 12 2 o 3771.26 3662.04 222.43
-1 12 2 o 3114.07 2915.57 212.32
-9 13 2 o 5055.30 4953.32 272.99
-6 13 2 o 6369.68 6394.96 262.88
-3 13 2 o 1739.02 1887.67 202.21
-8 14 2 o 1405.37 1276.02 202.21
0 0 3 o 353.87 550.18 80.88
-1 2 3 o 18532.70 18709.30 202.21
-3 3 3 o 23133.10 22945.80 465.09
0 3 3 o 16712.80 16656.30 293.21
-2 4 3 o 37500.20 36396.50 414.54
-4 5 3 o 11232.90 11273.50 262.88
-1 5 3 o 9665.74 9749.70 192.10
-6 6 3 o 6642.67 6538.55 333.65
-3 6 3 o 12324.80 12155.70 232.54
0 6 3 o 5126.08 5416.94 242.65
-5 7 3 o 10181.40 9774.45 262.88
-2 7 3 o 12941.60 12772.00 293.21
-7 8 3 o 7259.42 7562.48 272.99
-4 8 3 o 10889.10 10856.20 313.43
-1 8 3 o 5803.49 5849.02 212.32
-9 9 3 o 9170.32 9448.37 485.31
-6 9 3 o 6501.12 6439.51 283.10
-3 9 3 o 8371.58 8050.62 283.10
0 9 3 o 8624.35 8832.74 333.65
-8 10 3 o 3164.62 3559.20 262.88
-5 10 3 o 3872.36 3793.67 222.43
-2 10 3 o 3376.94 3419.60 232.54
-10 11 3 o 2851.19 2662.66 374.09
-7 11 3 o 7876.16 7671.86 363.98
-4 11 3 o 6339.35 6525.09 303.32
-1 11 3 o 3427.50 3256.47 192.10
-9 12 3 o 3376.94 3295.30 222.43
-6 12 3 o 4660.99 4638.70 252.76
-3 12 3 o 3558.93 3600.02 212.32
-8 13 3 o 3397.16 3281.66 242.65
-5 13 3 o 2497.32 2451.84 222.43
-1 1 4 o 18593.40 18861.70 323.54
0 2 4 o 47732.20 45308.10 626.86
-2 3 4 o 13426.90 13232.00 202.21
-4 4 4 o 22698.30 22523.80 485.31
-1 4 4 o 9969.06 10272.00 171.88
-3 5 4 o 15762.40 15547.20 262.88
0 5 4 o 30240.80 29238.50 566.19
-5 6 4 o 5388.95 5561.67 192.10
-2 6 4 o 14195.30 13965.60 262.88
-7 7 4 o 36438.60 36192.20 940.29
-4 7 4 o 8149.15 8329.23 222.43
-1 7 4 o 6602.23 6681.79 212.32
-6 8 4 o 5045.19 4979.21 212.32
-3 8 4 o 6875.21 7119.06 222.43
0 8 4 o 3356.72 3011.59 313.43
-8 9 4 o 3387.05 3949.39 283.10
-5 9 4 o 8199.70 8118.01 283.10
-2 9 4 o 16247.70 15888.30 404.42
-10 10 4 o 2881.52 2646.41 283.10
-7 10 4 o 3740.92 4342.06 262.88
-4 10 4 o 3902.69 4325.46 252.76
-1 10 4 o 3710.59 3526.08 212.32
-9 11 4 o 5318.18 5966.74 333.65
-6 11 4 o 5672.05 5733.57 313.43
-3 11 4 o 2790.53 2913.79 181.99
0 11 4 o 5146.30 5953.68 353.87
-11 12 4 o 2153.56 2168.02 202.21
-8 12 4 o 3023.07 2909.56 181.99
-5 12 4 o 4236.34 4226.34 232.54
-2 12 4 o 3447.72 3285.52 222.43
-7 13 4 o 5227.18 5061.24 293.21
-4 13 4 o 3882.47 3499.39 252.76
0 1 5 o 12142.80 12064.60 252.76
-2 2 5 o 14852.50 14609.50 303.32
-1 3 5 o 9736.52 9760.38 171.88
-3 4 5 o 10292.60 10247.60 222.43
0 4 5 o 19291.00 18804.10 424.65
-5 5 5 o 12365.30 11680.00 394.31
-2 5 5 o 10302.70 10049.90 212.32
-4 6 5 o 9989.28 9696.24 262.88
-1 6 5 o 8604.13 8857.96 232.54
-6 7 5 o 4954.20 4695.68 242.65
-3 7 5 o 6713.44 6885.36 202.21
0 7 5 o 2921.97 3041.69 222.43
-8 8 5 o 1698.58 2100.14 333.65
-5 8 5 o 4337.45 4347.18 202.21
-2 8 5 o 4398.11 4277.26 232.54
-7 9 5 o 6531.45 6922.28 283.10
-4 9 5 o 8897.33 8797.63 283.10
-1 9 5 o 3154.51 3218.81 313.43
-9 10 5 o 2921.97 3144.29 313.43
-6 10 5 o 4418.34 4583.14 262.88
-3 10 5 o 4145.35 3711.47 272.99
0 10 5 o 2022.12 2041.53 242.65
-11 11 5 o 3629.71 4207.97 293.21
-8 11 5 o 3397.16 3578.05 192.10
-5 11 5 o 4236.34 3958.37 283.10
-2 11 5 o 7178.53 7292.24 293.21
-7 12 5 o 1698.58 1580.47 181.99
-4 12 5 o 2062.56 2155.08 161.77
0 0 6 o 59824.50 61044.00 1385.15
-1 2 6 o 6167.47 6093.95 151.66
-3 3 6 o 7148.20 7134.82 232.54
0 3 6 o 11546.30 11032.30 303.32
-2 4 6 o 13993.10 13044.70 232.54
-4 5 6 o 7411.08 7410.27 192.10
-1 5 6 o 7218.97 7444.19 212.32
-6 6 6 o 8391.80 7794.05 394.31
-3 6 6 o 4782.32 4949.63 171.88
0 6 6 o 9079.33 9123.54 384.20
-5 7 6 o 15570.30 15759.80 333.65
-2 7 6 o 11728.30 11405.10 293.21
-7 8 6 o 1809.80 2035.19 181.99
-4 8 6 o 3447.72 3605.38 192.10
-1 8 6 o 3609.49 4019.33 262.88
-9 9 6 o 9524.19 9266.86 363.98
-6 9 6 o 4782.32 4943.19 272.99
-3 9 6 o 2830.97 3006.14 202.21
0 9 6 o 9534.30 10145.40 384.20
-8 10 6 o 3093.85 2837.63 171.88
-5 10 6 o 4751.99 4257.72 293.21
-2 10 6 o 2032.23 2118.24 161.77
-7 11 6 o 4499.22 4249.75 222.43
-4 11 6 o 5742.83 5737.08 262.88
-6 12 6 o 1122.28 1187.69 151.66
-1 1 7 o 3023.07 2977.58 181.99
0 2 7 o 11556.40 11537.90 353.87
-2 3 7 o 5934.93 6057.60 171.88
-4 4 7 o 7188.64 6967.72 252.76
-1 4 7 o 7006.65 6785.95 192.10
-3 5 7 o 6258.47 6342.85 192.10
0 5 7 o 2911.85 2960.38 262.88
-5 6 7 o 3892.58 4186.64 192.10
-2 6 7 o 5206.96 5492.69 202.21
-7 7 7 o 2436.66 2140.94 303.32
-4 7 7 o 6622.45 6559.22 222.43
-1 7 7 o 3174.73 3708.87 222.43
-6 8 7 o 3225.28 3533.50 171.88
-3 8 7 o 3073.62 3403.64 212.32
0 8 7 o 2608.54 3071.38 222.43
-8 9 7 o 2022.12 1953.52 141.55
-5 9 7 o 4853.09 5161.23 293.21
-2 9 7 o 4044.24 4230.13 212.32
-7 10 7 o 1749.14 1738.61 151.66
-4 10 7 o 1870.46 1998.05 161.77
-1 10 7 o 1162.72 1624.21 151.66
-6 11 7 o 2355.77 2135.69 192.10
0 1 8 o 3265.73 3143.21 252.76
-2 2 8 o 18795.60 17706.70 414.54
-1 3 8 o 5409.18 5178.66 222.43
-3 4 8 o 3589.27 3718.86 161.77
0 4 8 o 5843.93 5537.10 333.65
-5 5 8 o 6420.24 6716.54 313.43
-2 5 8 o 6056.25 5892.40 212.32
-4 6 8 o 4751.99 4497.16 202.21
-1 6 8 o 2062.56 2022.89 171.88
-6 7 8 o 3569.04 3446.85 181.99
-3 7 8 o 5156.41 5377.72 202.21
0 7 8 o 12638.30 12587.30 434.76
-8 8 8 o 3528.60 3426.98 272.99
-5 8 8 o 2042.34 2215.39 131.44
-2 8 8 o 2669.20 2768.07 192.10
-7 9 8 o 6076.48 6534.45 272.99
-4 9 8 o 3144.40 3560.95 202.21
-1 9 8 o 1233.49 1584.63 151.66
0 0 9 o 2477.10 2783.91 485.31
-1 2 9 o 3053.40 2908.59 171.88
-3 3 9 o 4974.42 4250.24 313.43
0 3 9 o 2679.31 2424.76 212.32
-2 4 9 o 5752.94 5580.50 202.21
-4 5 9 o 3063.51 3173.64 161.77
-1 5 9 o 2396.21 2683.83 181.99
-6 6 9 o 2072.67 2058.02 222.43
-3 6 9 o 2618.65 2716.41 171.88
0 6 9 o 1546.92 1408.86 222.43
-5 7 9 o 1971.57 1824.96 151.66
-2 7 9 o 3235.39 3318.18 212.32
-4 8 9 o 2669.20 2499.33 171.88
-1 1 10 o 3892.58 3557.76 303.32
0 2 10 o 6784.22 7102.38 323.54
-2 3 10 o 1860.35 1783.93 151.66
-4 4 10 o 4074.57 4867.60 293.21
-1 4 10 o 1041.39 1276.01 121.33
-3 5 10 o 3093.85 2893.31 202.21
0 5 10 o 6460.68 6844.33 424.65
-5 6 10 o 2295.11 1616.26 798.74
-2 6 10 o 2820.86 2727.74 202.21
0 1 11 o 1799.69 1677.14 242.65
-2 2 11 o 1870.46 1822.40 293.21

_cod_database_fobs_code 2243276
