#------------------------------------------------------------------------------
#$Date: 2020-02-15 08:07:40 +0200 (Sat, 15 Feb 2020) $
#$Revision: 248205 $
#$URL: file:///home/coder/svn-repositories/cod/cif/2/24/32/2243278.cif $
#------------------------------------------------------------------------------
#
# This file is available in the Crystallography Open Database (COD),
# http://www.crystallography.net/. The original data for this entry
# were provided by IUCr Journals, http://journals.iucr.org/.
#
# The file may be used within the scientific community so long as
# proper attribution is given to the journal article from which the
# data were obtained.
#
data_2243278
loop_
_publ_author_name
'Chong, Saehwa'
'Riley, Brian J.'
'Nelson, Zayne J.'
'Perry, Samuel N.'
_publ_section_title
;
 Crystal structures and comparisons of huntite alumnium borates
 <i>RE</i>Al~3~(BO~3~)~4~ (<i>RE</i> = Tb, Dy and Ho)
;
_journal_coeditor_code           RU2069
_journal_issue                   3
_journal_name_full               'Acta Crystallographica Section E'
_journal_page_first              339
_journal_page_last               343
_journal_paper_doi               10.1107/S2056989020001802
_journal_volume                  76
_journal_year                    2020
_chemical_formula_iupac          'Ho Al3 (B O3)4'
_chemical_formula_moiety         'Ho1 Al3 B4 O12'
_chemical_formula_sum            'Al3 B4 Ho O12'
_chemical_formula_weight         481.1
_chemical_name_systematic
;
Holmium trialuminium tetrakis(borate)
;
_space_group_IT_number           155
_space_group_name_Hall           'R 3 2"'
_space_group_name_H-M_alt        'R 3 2 :H'
_symmetry_cell_setting           trigonal
_symmetry_space_group_name_Hall  'R 3 2"'
_symmetry_space_group_name_H-M   'R 3 2 :H'
_atom_sites_solution_primary     iterative
_cell_angle_alpha                90
_cell_angle_beta                 90
_cell_angle_gamma                120
_cell_formula_units_Z            3
_cell_length_a                   9.2832(3)
_cell_length_b                   9.2832(3)
_cell_length_c                   7.2345(3)
_cell_measurement_reflns_used    5662
_cell_measurement_temperature    100
_cell_measurement_theta_max      30.51
_cell_measurement_theta_min      3.79
_cell_volume                     539.93(3)
_computing_cell_refinement
;
JANA2006 (Pet\<r\'i\<cek <i>et al.</i>,  2014)
;
_computing_data_collection       'APEX3 (Bruker, 2012)'
_computing_data_reduction
;
SAINT (Bruker, 2012)
;
_computing_molecular_graphics
;
<i>VESTA</i> (Momma & Izumi, 2011)
;
_computing_publication_material
;
publCIF (Westrip, 2010)
;
_computing_structure_refinement
;
JANA2006 (Pet\<r\'i\<cek <i>et al.</i>,  2014)
;
_computing_structure_solution
;
SUPERFLIP (Palatinus & Chapuis, 2007)
;
_diffrn_ambient_temperature      100
_diffrn_measured_fraction_theta_full 1
_diffrn_measured_fraction_theta_max 1
_diffrn_measurement_device_type  'Bruker D8 QUEST CMOS area detector'
_diffrn_measurement_method       '\f and \w scans'
_diffrn_radiation_source         'X-ray tube'
_diffrn_radiation_type           'Mo K\a'
_diffrn_radiation_wavelength     0.71075
_diffrn_reflns_av_R_equivalents  0.0473
_diffrn_reflns_av_unetI/netI     0.0185
_diffrn_reflns_limit_h_max       13
_diffrn_reflns_limit_h_min       -13
_diffrn_reflns_limit_k_max       12
_diffrn_reflns_limit_k_min       -13
_diffrn_reflns_limit_l_max       10
_diffrn_reflns_limit_l_min       -10
_diffrn_reflns_number            5662
_diffrn_reflns_theta_full        30.51
_diffrn_reflns_theta_max         30.51
_diffrn_reflns_theta_min         3.79
_exptl_absorpt_coefficient_mu    11.448
_exptl_absorpt_correction_T_max  0.709
_exptl_absorpt_correction_T_min  0.570
_exptl_absorpt_correction_type   multi-scan
_exptl_absorpt_process_details
;
(SADABS; Krause <i>et al.</i>,  2015)
;
_exptl_crystal_colour            'Light pink'
_exptl_crystal_density_diffrn    4.4389
_exptl_crystal_description       'hexagonal prism'
_exptl_crystal_F_000             666
_exptl_crystal_size_max          0.05
_exptl_crystal_size_mid          0.05
_exptl_crystal_size_min          0.03
_refine_diff_density_max         0.54
_refine_diff_density_min         -0.65
_refine_ls_abs_structure_details
;
The crystal had chiral structure. Data was refined with inversion twinning in
 JANA2006, and the twin ratio was 0.558(12):0.442(12).
;
_refine_ls_abs_structure_Flack   0.442(12)
_refine_ls_extinction_method     none
_refine_ls_goodness_of_fit_all   1.08
_refine_ls_goodness_of_fit_ref   1.08
_refine_ls_number_constraints    0
_refine_ls_number_parameters     35
_refine_ls_number_reflns         381
_refine_ls_number_restraints     0
_refine_ls_R_factor_all          0.0115
_refine_ls_R_factor_gt           0.0115
_refine_ls_shift/su_max          0.0356
_refine_ls_shift/su_mean         0.0110
_refine_ls_structure_factor_coef F
_refine_ls_weighting_details     w=1/(\s^2^(F)+0.0001F^2^)
_refine_ls_weighting_scheme      sigma
_refine_ls_wR_factor_all         0.0149
_refine_ls_wR_factor_ref         0.0149
_reflns_number_gt                381
_reflns_number_total             381
_reflns_threshold_expression     I>2\s(I)
_iucr_refine_instructions_details
;
commands
maxsc  7
end
    7    0    0    1    0
 0.095842 0.000000 0.000000 0.000000 0.000000 0.000000      100000
 0.442311                                                   1
 0.000000 0.000000 0.000000                                 000
 0.000000 0.000000 0.000000 0.000000 0.000000 0.000000      000000
 0.000000 0.000000 0.000000 0.000000 0.000000 0.000000      000000
Ho1       1  2     0.166667 0.000000 0.000000 0.000000
 0.009963 0.009963 0.011296 0.004982 0.000000 0.000000      0000101000
Al1       2  2     0.500000 0.555189 0.000000 0.000000
 0.005787 0.005633 0.007132 0.002817-0.000226-0.000452      0100111010
B1        3  2     0.166667 0.666667 0.333333-0.166667
 0.010536 0.010536 0.006010 0.005268 0.000000 0.000000      0000101000
O1        4  2     0.500000 0.742841 0.076175 0.166667
 0.010734 0.010734 0.014031 0.004396-0.002112 0.002112      0100101110
O3        4  2     1.000000 0.366804-0.116108-0.146066
 0.010039 0.009759 0.010555 0.005035-0.000379-0.000936      0111111111
O2        4  2     0.500000 0.815507 0.482174-0.166667
 0.007758 0.007758 0.011932 0.003327-0.000005 0.000005      0100101110
B2        3  2     0.500000 0.891147 0.224480 0.166667
 0.013054 0.013054 0.008951 0.009101 0.000609-0.000609      0100101110
----------------------------   s.u. block   ----------------------------
 0.000168 0.000000 0.000000 0.000000 0.000000 0.000000
 0.011582
 0.000000 0.000000 0.000000
 0.000000 0.000000 0.000000 0.000000 0.000000 0.000000
 0.000000 0.000000 0.000000 0.000000 0.000000 0.000000
Ho1                0.000000 0.000000 0.000000 0.000000
 0.000086 0.000086 0.000098 0.000043 0.000000 0.000000
Al1                0.000000 0.000151 0.000000 0.000000
 0.000378 0.000495 0.000478 0.000248 0.000151 0.000302
B1                 0.000000 0.000000 0.000000 0.000000
 0.001516 0.001516 0.001821 0.000758 0.000000 0.000000
O1                 0.000000 0.000515 0.000515 0.000000
 0.001719 0.001719 0.001587 0.001685 0.000711 0.000711
O3                 0.000000 0.000279 0.000286 0.000268
 0.000974 0.000881 0.000734 0.000739 0.000641 0.000683
O2                 0.000000 0.000325 0.000325 0.000000
 0.000878 0.000878 0.000968 0.001062 0.000470 0.000470
B2                 0.000000 0.000841 0.000841 0.000000
 0.001832 0.001832 0.001484 0.002328 0.000855 0.000855
--------------------------   Saved points   ----------------------------
    0
--------------------------   Fourier maxima   --------------------------
    1    1    1
max1      1  1     1.000000 0.501248 0.000924 0.000000      000  0  0  0
     0.54     0.53
max2      1  1     1.000000 0.069914 0.037301 0.023804      000  0  0  0
     0.46     0.30
max3      1  1     1.000000 0.746425 0.138776 0.150210      000  0  0  0
     0.27     0.22
max4      1  1     1.000000 0.369846 0.613513 0.154606      000  0  0  0
     0.28     0.22
max5      1  1     1.000000 0.410321 0.149541 0.139068      000  0  0  0
     0.21     0.21
max6      1  1     1.000000 0.839475 0.146995 0.128126      000  0  0  0
     0.28     0.21
max7      1  1     1.000000 0.741046 0.109768 0.128440      000  0  0  0
     0.26     0.20
max8      1  1     1.000000 0.172616 0.066008 0.131222      000  0  0  0
     0.23     0.16
max9      1  1     1.000000-0.000059-0.000059 0.067044      000  0  0  0
     0.34     0.15
max10     1  1     1.000000 0.891573 0.065818 0.125957      000  0  0  0
     0.23     0.15
--------------------------   Fourier minima   --------------------------
    1    1    1
min1      1  1     1.000000 0.000048 0.000048 0.166754      000  0  0  0
     0.65     0.37
min2      1  1     1.000000 0.188196 0.334123 0.087411      000  0  0  0
     0.26     0.27
min3      1  1     1.000000 0.614773 0.278825 0.066937      000  0  0  0
     0.31     0.26
min4      1  1     1.000000 0.213756 0.327181 0.142135      000  0  0  0
     0.26     0.22
min5      1  1     1.000000 0.125478 0.259346 0.026064      000  0  0  0
     0.24     0.21
min6      1  1     1.000000 0.292630 0.389765 0.063255      000  0  0  0
     0.28     0.21
min7      1  1     1.000000 0.063744 0.134970 0.052224      000  0  0  0
     0.39     0.20
min8      1  1     1.000000 0.124360 0.229864 0.157643      000  0  0  0
     0.21     0.16
min9      1  1     1.000000 0.731150 0.254595 0.003471      000  0  0  0
     0.17     0.12
min10     1  1     1.000000 0.666449 0.333115-0.007299      000  0  0  0
     0.24     0.11
------------------------------------------------------------------------
Version Jana2006
title
cell 9.2832 9.2832 7.2345 90 90 120
esdcell 0.0003 0.0003 0.0003 0 0 0
spgroup R32 155 5
lattice R
symmetry x y z
symmetry -y x-y z
symmetry -x+y -x z
symmetry y x -z
symmetry x-y -y -z
symmetry -x -x+y -z
unitsnumb 3
atlist Ho Al3 B4 O12
formtab -62
atom Ho atradius 1.76 color 7065251
atom Al atradius 1.43 color 129178214
atom B atradius 0.81 color 31162015
atom O atradius 0.74 color 254003000
twin 2
    -1.0000     0.0000     0.0000
     0.0000    -1.0000     0.0000
     0.0000     0.0000    -1.0000
roundmethod 1
end
*******************************************************************************
contour
end contour
dist
  angles 1
end dist
fourier
  maptype 6
end fourier
refine
  cycles 1000 damp 0.2 siglevel 2
end refine
;
_cod_data_source_file            ru2069sup1.cif
_cod_data_source_block           Ho-borate
_cod_original_sg_symbol_H-M      'R 3 2'
_cod_original_formula_sum        'Ho1 Al3 B4 O12'
_cod_database_code               2243278
loop_
_space_group_symop_id
_space_group_symop_operation_xyz
1 x,y,z
2 -y,x-y,z
3 -x+y,-x,z
4 y,x,-z
5 x-y,-y,-z
6 -x,-x+y,-z
7 x+2/3,y+1/3,z+1/3
8 -y+2/3,x-y+1/3,z+1/3
9 -x+y+2/3,-x+1/3,z+1/3
10 y+2/3,x+1/3,-z+1/3
11 x-y+2/3,-y+1/3,-z+1/3
12 -x+2/3,-x+y+1/3,-z+1/3
13 x+1/3,y+2/3,z+2/3
14 -y+1/3,x-y+2/3,z+2/3
15 -x+y+1/3,-x+2/3,z+2/3
16 y+1/3,x+2/3,-z+2/3
17 x-y+1/3,-y+2/3,-z+2/3
18 -x+1/3,-x+y+2/3,-z+2/3
loop_
_atom_site_type_symbol
_atom_site_label
_atom_site_fract_x
_atom_site_fract_y
_atom_site_fract_z
_atom_site_U_iso_or_equiv
_atom_site_adp_type
_atom_site_calc_flag
_atom_site_refinement_flags
_atom_site_occupancy
_atom_site_site_symmetry_multiplicity
_atom_site_disorder_assembly
_atom_site_disorder_group
Ho Ho1 0 0 0 0.01041(7) Uani d . 1 3 . .
Al Al1 0.55519(15) 0 0 0.0062(3) Uani d . 1 9 . .
B B1 0.666667 0.333333 -0.166667 0.0090(12) Uani d . 1 3 . .
O O1 0.7428(5) 0.0762(5) 0.166667 0.0123(14) Uani d . 1 9 . .
O O3 0.3668(3) -0.1161(3) -0.1461(3) 0.0101(7) Uani d . 1 18 . .
O O2 0.8155(3) 0.4822(3) -0.166667 0.0094(8) Uani d . 1 9 . .
B B2 0.8911(8) 0.2245(8) 0.166667 0.0105(16) Uani d . 1 9 . .
loop_
_atom_site_aniso_label
_atom_site_aniso_U_11
_atom_site_aniso_U_22
_atom_site_aniso_U_33
_atom_site_aniso_U_12
_atom_site_aniso_U_13
_atom_site_aniso_U_23
_atom_site_aniso_type_symbol
Ho1 0.00996(9) 0.00996(9) 0.01130(10) 0.00498(4) 0 0 Ho
Al1 0.0058(4) 0.0056(5) 0.0071(5) 0.0028(2) -0.00023(15) -0.0005(3) Al
B1 0.0105(15) 0.0105(15) 0.0060(18) 0.0053(8) 0 0 B
O1 0.0107(17) 0.0107(17) 0.0140(16) 0.0044(17) -0.0021(7) 0.0021(7) O
O3 0.0100(10) 0.0098(9) 0.0106(7) 0.0050(7) -0.0004(6) -0.0009(7) O
O2 0.0078(9) 0.0078(9) 0.0119(10) 0.0033(11) 0.0000(5) 0.0000(5) O
B2 0.0131(18) 0.0131(18) 0.0090(15) 0.009(2) 0.0006(9) -0.0006(9) B
loop_
_atom_type_symbol
_atom_type_scat_dispersion_real
_atom_type_scat_dispersion_imag
_atom_type_scat_source
Al 0.0645 0.0514 'International Tables Vol C tables 4.2.6.8 and 6.1.1.1'
B 0.0013 0.0007 'International Tables Vol C tables 4.2.6.8 and 6.1.1.1'
Ho -0.2175 4.6783 'International Tables Vol C tables 4.2.6.8 and 6.1.1.1'
O 0.0106 0.0060 'International Tables Vol C tables 4.2.6.8 and 6.1.1.1'
loop_
_diffrn_standard_refln_index_h
_diffrn_standard_refln_index_k
_diffrn_standard_refln_index_l
? ? ?
loop_
_geom_angle_atom_site_label_1
_geom_angle_atom_site_label_2
_geom_angle_atom_site_label_3
_geom_angle_site_symmetry_1
_geom_angle_site_symmetry_2
_geom_angle_site_symmetry_3
_geom_angle
_geom_angle_publ_flag
O3 Ho1 O3 7_455 . 8_445 89.28(9) ?
O3 Ho1 O3 7_455 . 9_555 89.28(9) ?
O3 Ho1 O3 7_455 . 16_544 119.73(7) ?
O3 Ho1 O3 7_455 . 17_444 144.97(12) ?
O3 Ho1 O3 7_455 . 18_554 73.16(9) ?
O3 Ho1 O3 8_445 . 9_555 89.28(9) ?
O3 Ho1 O3 8_445 . 16_544 144.97(12) ?
O3 Ho1 O3 8_445 . 17_444 73.16(8) ?
O3 Ho1 O3 8_445 . 18_554 119.73(11) ?
O3 Ho1 O3 9_555 . 16_544 73.16(9) ?
O3 Ho1 O3 9_555 . 17_444 119.73(11) ?
O3 Ho1 O3 9_555 . 18_554 144.97(7) ?
O3 Ho1 O3 16_544 . 17_444 89.28(9) ?
O3 Ho1 O3 16_544 . 18_554 89.28(9) ?
O3 Ho1 O3 17_444 . 18_554 89.28(9) ?
O2 B1 O2 . . 2_655 120.0(2) ?
O2 B1 O2 . . 3_665 120.0(2) ?
O2 B1 O2 2_655 . 3_665 120.0(2) ?
Ho1 O3 B2 13_544 . 13_444 105.5(2) ?
O1 B2 O3 . . 7_555 117.4(7) ?
O1 B2 O3 . . 4_655 117.4(7) ?
O3 B2 O3 7_555 . 4_655 125.3(4) ?
loop_
_geom_bond_atom_site_label_1
_geom_bond_atom_site_label_2
_geom_bond_site_symmetry_1
_geom_bond_site_symmetry_2
_geom_bond_distance
_geom_bond_publ_flag
Ho1 O3 . 7_455 2.318(3) ?
Ho1 O3 . 8_445 2.318(2) ?
Ho1 O3 . 9_555 2.318(3) ?
Ho1 O3 . 16_544 2.318(3) ?
Ho1 O3 . 17_444 2.318(2) ?
Ho1 O3 . 18_554 2.318(3) ?
B1 O2 . . 1.382(2) ?
B1 O2 . 2_655 1.382(4) ?
B1 O2 . 3_665 1.382(4) ?
O1 B2 . . 1.377(6) ?
O3 B2 . 13_444 1.364(9) ?
loop_
_refln_index_h
_refln_index_k
_refln_index_l
_refln_observed_status
_refln_F_squared_meas
_refln_F_squared_calc
_refln_F_squared_sigma
-1 2 0 o 16885.00 17634.60 250.39
1 1 0 o 16406.00 17447.40 185.07
0 3 0 o 24081.00 24269.20 272.16
-2 4 0 o 31875.70 31463.40 522.55
2 2 0 o 32354.70 31719.20 446.35
-1 5 0 o 23569.30 23659.20 272.16
1 4 0 o 23972.10 23733.60 304.82
-3 6 0 o 16732.60 16487.40 370.14
3 3 0 o 16427.70 15859.50 304.82
0 6 0 o 23318.90 23330.40 304.82
-2 7 0 o 30558.40 31146.70 359.26
2 5 0 o 30830.60 31145.60 402.80
-4 8 0 o 7544.35 7825.84 239.50
4 4 0 o 7794.74 8119.23 250.39
-1 8 0 o 5769.85 5943.23 152.41
1 7 0 o 5867.83 5944.90 152.41
-3 9 0 o 8230.20 8488.82 185.07
3 6 0 o 8491.47 8540.87 195.96
0 9 0 o 19116.70 18833.40 337.48
-5 10 0 o 9754.31 9739.51 272.16
5 5 0 o 9340.62 9711.28 326.60
-2 10 0 o 5486.80 5649.54 185.07
2 8 0 o 5726.30 5655.45 163.30
-4 11 0 o 9514.81 10012.10 261.28
4 7 0 o 9743.42 9991.35 272.16
-1 11 0 o 3385.70 3375.23 119.75
1 10 0 o 3429.25 3248.53 195.96
-6 12 0 o 2340.60 2315.11 76.21
6 6 0 o 2493.01 2348.94 239.50
-3 12 0 o 4038.89 4262.78 130.64
3 9 0 o 4387.26 4211.10 87.09
-5 13 0 o 3037.34 3021.65 65.32
5 8 0 o 3167.97 2992.43 76.21
-1 1 1 o 19965.90 20719.00 163.30
0 2 1 o 37438.70 36593.70 424.57
-2 3 1 o 19933.20 19879.40 206.84
-3 2 1 o 20760.60 20273.10 217.73
-4 4 1 o 34597.30 32714.00 359.26
-1 4 1 o 31091.90 30162.30 337.48
1 3 1 o 30416.90 30298.50 304.82
-3 5 1 o 21315.80 21217.60 261.28
-5 3 1 o 21522.60 21384.90 293.94
0 5 1 o 15088.70 15292.10 228.62
-5 6 1 o 17810.30 17786.90 261.28
-6 5 1 o 17636.10 17387.00 261.28
-2 6 1 o 17472.80 17311.10 228.62
2 4 1 o 17614.40 17470.20 261.28
-7 7 1 o 4441.69 4216.04 152.41
-4 7 1 o 17200.70 17629.20 250.39
-7 4 1 o 17690.60 17671.40 250.39
-1 7 1 o 10364.00 10399.90 195.96
1 6 1 o 10592.60 10649.90 195.96
-6 8 1 o 9155.55 9414.27 217.73
-8 6 1 o 9286.19 9526.90 195.96
-3 8 1 o 7707.65 7744.47 163.30
3 5 1 o 7293.96 7407.37 152.41
0 8 1 o 6912.93 6950.40 163.30
-8 9 1 o 5323.50 5150.87 185.07
-9 8 1 o 5225.52 5199.10 185.07
-5 9 1 o 15535.00 16112.20 261.28
-9 5 1 o 16101.10 16130.80 293.94
-2 9 1 o 11637.70 11977.50 228.62
2 7 1 o 11866.30 11968.10 228.62
-10 10 1 o 4223.96 3988.04 174.18
-7 10 1 o 5965.81 5933.33 228.62
-10 7 1 o 5835.17 5897.75 195.96
-4 10 1 o 6401.27 6470.44 163.30
4 6 1 o 6150.88 6507.99 185.07
-1 10 1 o 4713.86 4752.58 195.96
1 9 1 o 4659.42 4823.76 174.18
-9 11 1 o 12878.70 12598.00 315.71
-11 9 1 o 12857.00 12528.30 326.60
-6 11 1 o 5682.76 6093.18 174.18
-11 6 1 o 6063.78 6047.87 228.62
-3 11 1 o 5780.73 5817.86 217.73
3 8 1 o 6009.35 5830.38 174.18
0 11 1 o 7141.55 7164.29 130.64
-8 12 1 o 3048.22 3105.34 108.86
-12 8 1 o 3200.63 3267.34 152.41
-5 12 1 o 4311.06 4304.79 76.21
5 7 1 o 4180.42 4242.07 185.07
-2 12 1 o 2678.08 2612.43 65.32
2 10 1 o 2754.29 2720.60 65.32
-7 13 1 o 2405.92 2404.83 76.21
-13 7 1 o 2340.60 2342.13 76.21
0 1 2 o 18420.00 19291.50 152.41
-2 2 2 o 106198.00 90721.80 2177.30
-1 3 2 o 29306.50 28848.40 272.16
1 2 2 o 29360.90 28723.50 272.16
-3 4 2 o 23591.10 21749.70 283.05
-4 3 2 o 22720.10 21006.80 293.94
0 4 2 o 26290.90 26021.70 293.94
-5 5 2 o 32463.60 30973.80 391.91
-2 5 2 o 24897.40 24248.90 272.16
2 3 2 o 24701.50 24269.50 272.16
-4 6 2 o 19247.30 18968.50 272.16
-6 4 2 o 19998.50 19063.60 304.82
-1 6 2 o 6477.47 6469.55 152.41
1 5 2 o 6390.38 6358.32 141.52
-6 7 2 o 11028.00 11055.70 239.50
-7 6 2 o 11332.90 11041.70 250.39
-3 7 2 o 15720.10 15746.20 228.62
3 4 2 o 15850.80 15886.00 239.50
0 7 2 o 48510.30 49978.70 576.98
-8 8 2 o 6619.00 6971.30 206.84
-5 8 2 o 10004.70 10539.50 217.73
-8 5 2 o 10091.80 10459.70 206.84
-2 8 2 o 8164.88 8380.49 185.07
2 6 2 o 8262.86 8449.31 174.18
-7 9 2 o 20314.20 20401.50 381.03
-9 7 2 o 20847.70 20386.10 348.37
-4 9 2 o 10331.30 10446.70 206.84
4 5 2 o 10385.70 10431.60 217.73
-1 9 2 o 5911.37 5747.67 163.30
1 8 2 o 5911.37 5695.54 185.07
-9 10 2 o 3690.53 3687.39 195.96
-10 9 2 o 3614.32 3642.10 152.41
-6 10 2 o 4583.22 4497.18 206.84
-10 6 2 o 4615.88 4709.74 163.30
-3 10 2 o 4986.02 5140.69 174.18
3 7 2 o 5062.23 5034.36 185.07
0 10 2 o 3777.62 3586.93 163.30
-11 11 2 o 8284.63 8109.85 141.52
-8 11 2 o 3309.50 3458.57 206.84
-11 8 2 o 3157.09 3347.98 163.30
-5 11 2 o 6684.31 7090.48 185.07
5 6 2 o 6662.54 7076.42 217.73
-2 11 2 o 7653.21 7499.49 206.84
2 9 2 o 7740.31 7564.78 206.84
-10 12 2 o 4006.23 4002.26 97.98
-12 10 2 o 4060.67 3996.57 97.98
-7 12 2 o 7054.46 7134.46 119.75
-12 7 2 o 7293.96 7131.35 228.62
-4 12 2 o 4082.44 4064.73 76.21
4 8 2 o 4202.19 4096.93 87.09
-6 13 2 o 6771.41 6715.62 174.18
6 7 2 o 7076.23 6720.30 206.84
0 0 3 o 544.33 812.07 32.66
-1 2 3 o 20423.10 20351.90 206.84
1 1 3 o 19759.00 20131.30 195.96
-3 3 3 o 25136.90 24728.00 283.05
0 3 3 o 18953.40 18720.70 195.96
-2 4 3 o 40780.90 38839.00 391.91
2 2 3 o 40672.00 38747.70 424.57
-4 5 3 o 12378.00 11910.10 195.96
-5 4 3 o 12780.80 12254.60 217.73
-1 5 3 o 10886.50 10724.30 174.18
1 4 3 o 10908.30 10964.60 163.30
-6 6 3 o 7522.58 7305.31 174.18
-3 6 3 o 13466.60 13368.50 206.84
3 3 3 o 13455.70 13316.10 217.73
0 6 3 o 6183.54 6117.41 130.64
-5 7 3 o 10951.80 10747.40 228.62
-7 5 3 o 11104.20 10824.10 217.73
-2 7 3 o 13793.20 13758.50 217.73
2 5 3 o 13902.10 13787.00 239.50
-7 8 3 o 8317.29 8407.98 217.73
-8 7 3 o 8066.90 8216.46 217.73
-4 8 3 o 11909.80 12189.20 206.84
4 4 3 o 11920.70 12204.80 228.62
-1 8 3 o 6586.34 6641.27 152.41
1 7 3 o 6237.97 6448.67 152.41
-9 9 3 o 10897.40 10316.20 304.82
-6 9 3 o 7272.19 7503.32 217.73
-9 6 3 o 7326.62 7430.79 195.96
-3 9 3 o 8741.86 8821.07 195.96
3 6 3 o 8752.75 8821.09 217.73
0 9 3 o 9634.56 9528.28 206.84
-8 10 3 o 3788.50 3827.09 185.07
-10 8 3 o 3940.92 3980.97 163.30
-5 10 3 o 4115.10 4316.54 141.52
5 5 3 o 3995.35 4146.47 185.07
-2 10 3 o 3690.53 3825.76 141.52
2 8 3 o 3853.82 3941.15 141.52
-10 11 3 o 3287.72 3136.77 97.98
-11 10 3 o 3157.09 3162.03 130.64
-7 11 3 o 8012.47 8134.87 239.50
-11 7 3 o 8023.35 8106.17 185.07
-4 11 3 o 6956.48 7082.37 239.50
4 7 3 o 7010.91 7088.22 239.50
-1 11 3 o 3810.28 3775.90 76.21
1 10 3 o 3842.94 3765.39 65.32
-9 12 3 o 3788.50 3751.63 97.98
-12 9 3 o 3810.28 3802.16 87.09
-6 12 3 o 4800.95 4725.64 97.98
6 6 3 o 4964.25 4907.65 108.86
-3 12 3 o 4028.01 3948.01 76.21
3 9 3 o 4191.30 3983.41 87.09
-1 1 4 o 20052.90 20093.70 185.07
0 2 4 o 50589.60 48406.50 413.69
-2 3 4 o 14718.60 15020.60 185.07
-3 2 4 o 14947.20 15141.60 185.07
-4 4 4 o 25354.70 24336.50 359.26
-1 4 4 o 11136.90 11197.20 130.64
1 3 4 o 10690.50 10728.50 152.41
-3 5 4 o 17298.70 16819.50 228.62
-5 3 4 o 17255.10 16856.30 283.05
0 5 4 o 30133.80 30506.40 337.48
-5 6 4 o 6488.36 6532.46 152.41
-6 5 4 o 6586.34 6441.39 174.18
-2 6 4 o 15698.30 15581.70 228.62
2 4 4 o 15741.90 15553.40 283.05
-7 7 4 o 37373.40 36895.90 500.78
-4 7 4 o 9460.37 9289.38 163.30
-7 4 4 o 9438.60 9352.18 206.84
-1 7 4 o 7381.05 7516.04 185.07
1 6 4 o 7065.34 7512.21 174.18
-6 8 4 o 5617.44 5532.40 185.07
-8 6 4 o 5508.57 5618.30 185.07
-3 8 4 o 7881.83 7990.15 163.30
3 5 4 o 7674.99 7949.52 206.84
0 8 4 o 3755.84 3785.33 141.52
-8 9 4 o 5062.23 4710.50 217.73
-9 8 4 o 4746.52 4684.00 195.96
-5 9 4 o 8828.96 8887.58 195.96
-9 5 4 o 8458.81 8883.48 239.50
-2 9 4 o 16841.40 16388.70 304.82
2 7 4 o 16188.20 16417.80 304.82
-10 10 4 o 3222.41 3022.05 228.62
-7 10 4 o 5007.79 4770.29 206.84
-10 7 4 o 4550.56 4681.07 152.41
-4 10 4 o 4866.27 4774.43 163.30
4 6 4 o 4713.86 4980.16 174.18
-1 10 4 o 3810.28 3827.14 130.64
1 9 4 o 3636.09 3748.26 141.52
-9 11 4 o 5987.58 6152.79 283.05
-11 9 4 o 6368.61 6199.51 119.75
-6 11 4 o 6510.13 6037.24 217.73
-11 6 4 o 5933.15 5994.33 185.07
-3 11 4 o 3451.02 3399.13 65.32
3 8 4 o 3255.07 3284.26 141.52
-8 12 4 o 3255.07 3270.53 87.09
-12 8 4 o 3418.36 3291.87 97.98
-5 12 4 o 4550.56 4642.39 97.98
5 7 4 o 4800.95 4626.86 108.86
0 1 5 o 13357.70 13606.40 141.52
-2 2 5 o 16819.70 16517.40 195.96
-1 3 5 o 10701.40 10603.20 130.64
1 2 5 o 10875.60 10923.70 152.41
-3 4 5 o 11082.50 11531.90 163.30
-4 3 5 o 11507.00 11543.10 174.18
0 4 5 o 20303.30 20134.20 228.62
-5 5 5 o 12715.40 12636.30 250.39
-2 5 5 o 11049.80 11180.90 152.41
2 3 5 o 11300.20 11311.70 195.96
-4 6 5 o 10864.70 10912.20 163.30
-6 4 5 o 10788.50 10923.10 239.50
-1 6 5 o 10004.70 10057.10 163.30
1 5 5 o 9558.35 9821.09 185.07
-6 7 5 o 5541.23 5464.84 163.30
-7 6 5 o 5617.44 5623.50 185.07
-3 7 5 o 7522.58 7794.96 152.41
3 4 5 o 7729.42 7803.75 185.07
0 7 5 o 3407.48 3593.76 130.64
-8 8 5 o 2471.24 2644.71 108.86
-5 8 5 o 4822.72 4832.14 152.41
-8 5 5 o 4626.77 4629.95 152.41
-2 8 5 o 4888.04 4866.95 141.52
2 6 5 o 4898.93 4961.81 163.30
-7 9 5 o 7805.62 7678.48 250.39
-9 7 5 o 7642.33 7705.15 206.84
-4 9 5 o 9721.65 9813.07 185.07
4 5 5 o 9634.56 9819.26 250.39
-1 9 5 o 3527.23 3733.22 119.75
1 8 5 o 3734.07 3783.80 185.07
-9 10 5 o 3744.96 3660.45 87.09
-10 9 5 o 3668.75 3668.21 87.09
-6 10 5 o 5138.43 5111.80 174.18
-10 6 5 o 5356.16 5181.93 163.30
-3 10 5 o 4191.30 4233.40 119.75
3 7 5 o 4354.60 4195.01 163.30
0 10 5 o 2590.99 2644.25 65.32
-8 11 5 o 4256.62 4228.64 97.98
-11 8 5 o 4289.28 4219.02 87.09
-5 11 5 o 4213.08 4440.32 174.18
5 6 5 o 4485.24 4375.51 108.86
0 0 6 o 65808.90 65800.00 892.69
-1 2 6 o 6989.14 7176.73 108.86
1 1 6 o 6912.93 7059.15 97.98
-3 3 6 o 8110.45 8123.20 141.52
0 3 6 o 12007.80 12257.60 152.41
-2 4 6 o 14762.10 14504.50 195.96
2 2 6 o 14424.60 14562.00 206.84
-4 5 6 o 8426.16 8705.17 163.30
-5 4 6 o 8426.16 8711.14 185.07
-1 5 6 o 7914.49 8324.17 152.41
1 4 6 o 8175.77 8430.19 141.52
-6 6 6 o 8785.41 8770.75 206.84
-3 6 6 o 5432.37 5785.63 97.98
3 3 6 o 5192.86 5516.14 130.64
0 6 6 o 10418.40 10728.60 206.84
-5 7 6 o 16580.10 16760.10 239.50
-7 5 6 o 16514.80 16737.70 315.71
-2 7 6 o 12160.20 12439.90 217.73
2 5 6 o 12399.70 12474.70 239.50
-7 8 6 o 2732.51 2610.64 65.32
-8 7 6 o 2645.42 2600.92 87.09
-4 8 6 o 3908.26 4027.94 108.86
4 4 6 o 4245.74 4180.84 152.41
-1 8 6 o 4169.53 4387.37 141.52
1 7 6 o 4049.78 4379.37 163.30
-9 9 6 o 9275.30 9429.26 152.41
-6 9 6 o 5290.84 5402.05 87.09
-9 6 6 o 5573.89 5468.41 97.98
-3 9 6 o 3734.07 3650.11 130.64
3 6 6 o 3407.48 3621.89 97.98
0 9 6 o 10668.80 10580.60 163.30
-8 10 6 o 3407.48 3272.85 87.09
-10 8 6 o 3331.27 3250.61 76.21
-5 10 6 o 4800.95 4840.61 87.09
5 5 6 o 4811.84 4825.66 97.98
-2 10 6 o 2656.31 2715.40 65.32
2 8 6 o 2765.17 2744.93 76.21
-1 1 7 o 3821.16 3856.58 87.09
0 2 7 o 12780.80 13088.90 163.30
-2 3 7 o 6673.43 6875.77 119.75
-3 2 7 o 6804.07 6931.74 108.86
-4 4 7 o 7979.81 8102.58 163.30
-1 4 7 o 7838.28 7927.40 130.64
1 3 7 o 7446.37 7856.38 130.64
-3 5 7 o 7185.09 7126.75 130.64
-5 3 7 o 6989.14 7200.85 152.41
0 5 7 o 3799.39 3725.24 119.75
-5 6 7 o 4986.02 4951.67 76.21
-6 5 7 o 4757.40 4780.65 87.09
-2 6 7 o 6150.88 6222.48 87.09
2 4 7 o 6248.85 6337.32 108.86
-7 7 7 o 2710.74 2589.65 65.32
-4 7 7 o 7457.26 7551.45 97.98
-7 4 7 o 7424.60 7611.75 141.52
-1 7 7 o 4278.40 4239.49 108.86
1 6 7 o 4180.42 4344.96 108.86
-6 8 7 o 4267.51 4218.80 76.21
-8 6 7 o 4517.90 4252.53 87.09
-3 8 7 o 3646.98 3665.97 65.32
3 5 7 o 3451.02 3492.18 65.32
0 8 7 o 3875.60 3754.80 87.09
-5 9 7 o 5769.85 5839.71 97.98
-9 5 7 o 5769.85 5831.30 108.86
-2 9 7 o 4779.18 4904.28 87.09
2 7 7 o 4768.29 4875.70 97.98
0 1 8 o 4136.87 3881.76 87.09
-2 2 8 o 19650.10 19493.10 195.96
-1 3 8 o 6063.78 6178.94 76.21
1 2 8 o 6009.35 6134.39 87.09
-3 4 8 o 4670.31 4679.77 65.32
-4 3 8 o 4365.49 4476.39 65.32
0 4 8 o 6640.77 6728.87 97.98
-5 5 8 o 7566.12 7592.73 108.86
-2 5 8 o 6967.36 6898.95 87.09
2 3 8 o 6760.52 6893.21 108.86
-4 6 8 o 5116.66 5176.80 76.21
-6 4 8 o 5236.41 5255.18 97.98
-1 6 8 o 2340.60 2380.81 54.43
1 5 8 o 2405.92 2314.19 76.21
-6 7 8 o 4071.55 4074.55 76.21
-7 6 8 o 4202.19 4079.19 76.21
-3 7 8 o 6150.88 6089.04 87.09
3 4 8 o 6096.44 6141.36 97.98
0 7 8 o 13390.40 13687.90 185.07
-5 8 8 o 2950.24 2928.77 65.32
-8 5 8 o 2928.47 2882.45 76.21
-2 8 8 o 3472.80 3522.25 76.21
2 6 8 o 3440.14 3547.30 76.21
0 0 9 o 3657.87 3335.19 97.98
-1 2 9 o 3777.62 3642.26 54.43
1 1 9 o 3690.53 3589.10 76.21
-3 3 9 o 5171.09 5053.54 76.21
0 3 9 o 3157.09 3116.05 54.43
-2 4 9 o 6825.84 6650.27 97.98
2 2 9 o 6847.61 6667.11 87.09
-4 5 9 o 3527.23 3565.72 65.32
-5 4 9 o 3679.64 3694.53 65.32
-1 5 9 o 3211.52 3170.51 54.43
1 4 9 o 3189.75 3229.34 65.32
-3 6 9 o 3222.41 3226.76 65.32
3 3 9 o 3113.54 3165.47 54.43
-1 1 10 o 4474.35 4278.61 65.32
0 2 10 o 8382.61 8204.08 108.86
-2 3 10 o 2482.12 2446.80 54.43
-3 2 10 o 2688.97 2512.51 54.43

_cod_database_fobs_code 2243278
