#------------------------------------------------------------------------------
#$Date: 2021-05-18 19:36:50 +0300 (Tue, 18 May 2021) $
#$Revision: 265307 $
#$URL: file:///home/coder/svn-repositories/cod/cif/3/00/01/3000102.cif $
#------------------------------------------------------------------------------
#
# This file is available in the Crystallography Open Database (COD),
# http://www.crystallography.net/
#
# All data on this site have been placed in the public domain by the
# contributors.
#
data_3000102
loop_
_publ_author_name
'Bubnova, Rimma'
'Volkov, Sergey'
'Barbara Albert'
'Filatov, Stanislav'
_publ_section_title
;
 Borates--Crystal Structures of Prospective Nonlinear Optical Materials:
 High Anisotropy of the Thermal Expansion Caused by Anharmonic Atomic
 Vibrations
;
_journal_issue                   3
_journal_name_full               Crystals
_journal_page_first              93
_journal_paper_doi               10.3390/cryst7030093
_journal_volume                  7
_journal_year                    2017
_chemical_formula_sum            'B2 Ba O4'
_chemical_formula_weight         223
_space_group_IT_number           161
_symmetry_cell_setting           trigonal
_symmetry_Int_Tables_number      161
_symmetry_space_group_name_Hall  'R 3 -2"c'
_symmetry_space_group_name_H-M   'R 3 c :H'
_cell_angle_alpha                90
_cell_angle_beta                 90
_cell_angle_gamma                120
_cell_formula_units_Z            18
_cell_length_a                   12.5820(15)
_cell_length_b                   12.5820(15)
_cell_length_c                   12.7519(19)
_cell_measurement_temperature    223
_cell_volume                     1748.3(4)
_diffrn_ambient_temperature      223
_diffrn_measured_fraction_theta_full 0.98
_diffrn_measured_fraction_theta_max 0.98
_diffrn_measurement_device       'four-circle diffractometer'
_diffrn_measurement_device_type  'IPDS Stoe'
_diffrn_measurement_method       '??integration method??'
_diffrn_radiation_monochromator  graphite
_diffrn_radiation_probe          x-ray
_diffrn_radiation_source         'X-ray tube'
_diffrn_radiation_type           'Mo K\a'
_diffrn_radiation_wavelength     0.71073
_diffrn_reflns_av_R_equivalents  0.0793
_diffrn_reflns_av_unetI/netI     0.0043
_diffrn_reflns_limit_h_max       17
_diffrn_reflns_limit_h_min       -16
_diffrn_reflns_limit_k_max       16
_diffrn_reflns_limit_k_min       -17
_diffrn_reflns_limit_l_max       17
_diffrn_reflns_limit_l_min       -17
_diffrn_reflns_number            5084
_diffrn_reflns_theta_full        29.2
_diffrn_reflns_theta_max         29.2
_diffrn_reflns_theta_min         3.24
_exptl_absorpt_coefficient_mu    10.083
_exptl_crystal_density_diffrn    3.8119
_exptl_crystal_F_000             1764
_refine_diff_density_max         0.86
_refine_diff_density_min         -0.68
_refine_ls_abs_structure_details
'  516 of Friedel pairs used in the refinement'
_refine_ls_extinction_coef       3400(200)
_refine_ls_extinction_method
'B-C type 1 Gaussian isotropic (Becker & Coppens, 1974)'
_refine_ls_goodness_of_fit_gt    2.55
_refine_ls_goodness_of_fit_ref   2.54
_refine_ls_number_constraints    1
_refine_ls_number_parameters     65
_refine_ls_number_reflns         1040
_refine_ls_number_restraints     0
_refine_ls_R_factor_all          0.0240
_refine_ls_R_factor_gt           0.0237
_refine_ls_shift/su_max          0.0215
_refine_ls_shift/su_mean         0.0053
_refine_ls_structure_factor_coef F
_refine_ls_weighting_details     w=1/(\s^2^(F)+0.0001F^2^)
_refine_ls_weighting_scheme      sigma
_refine_ls_wR_factor_gt          0.0294
_refine_ls_wR_factor_ref         0.0295
_reflns_number_gt                1032
_reflns_number_total             1040
_reflns_threshold_expression     I>3\s(I)
_cod_data_source_file            b-BaB2O4_223K.cif
_cod_data_source_block           I
_cod_depositor_comments
;
The following automatic conversions were performed:

'_diffrn_radiation_probe' value 'X-ray' changed to 'x-ray' according
to the built-in table from CIF Core dictionary named 'cif_core.dic'
version 2.4.1 from 2010-06-29.

Automatic conversion script
Id: cif_fix_values 4624 2016-04-14 12:54:50Z antanas 

 Released structure into public domain as published material.

 Antanas Vaitkus,
 2021-05-18
;
_cod_original_sg_symbol_Hall     'R 3;-2"c'
_cod_original_sg_symbol_H-M      'R 3 c'
_cod_original_formula_sum        'B2 Ba1 O4'
_cod_database_code               3000102
loop_
_space_group_symop_id
_space_group_symop_operation_xyz
1 x,y,z
2 -y,x-y,z
3 -x+y,-x,z
4 -y,-x,z+1/2
5 -x+y,y,z+1/2
6 x,x-y,z+1/2
7 x+2/3,y+1/3,z+1/3
8 -y+2/3,x-y+1/3,z+1/3
9 -x+y+2/3,-x+1/3,z+1/3
10 -y+2/3,-x+1/3,z+5/6
11 -x+y+2/3,y+1/3,z+5/6
12 x+2/3,x-y+1/3,z+5/6
13 x+1/3,y+2/3,z+2/3
14 -y+1/3,x-y+2/3,z+2/3
15 -x+y+1/3,-x+2/3,z+2/3
16 -y+1/3,-x+2/3,z+1/6
17 -x+y+1/3,y+2/3,z+1/6
18 x+1/3,x-y+2/3,z+1/6
loop_
_atom_site_label
_atom_site_type_symbol
_atom_site_fract_x
_atom_site_fract_y
_atom_site_fract_z
_atom_site_adp_type
_atom_site_U_iso_or_equiv
_atom_site_site_symmetry_multiplicity
_atom_site_occupancy
_atom_site_calc_flag
_atom_site_refinement_flags
_atom_site_disorder_assembly
_atom_site_disorder_group
B1 B 0.0211(5) -0.1016(5) 0.2426(5) Uani 0.0117(19) 18 1 d . . .
B2 B 0.0429(5) -0.0872(6) 0.5034(5) Uani 0.0136(19) 18 1 d . . .
Ba1 Ba 0.36104(2) 0.35797(2) 0.379931(14) Uani 0.01105(13) 18 1 d . . .
O1 O -0.0415(4) 0.0826(4) 0.5009(3) Uani 0.0170(14) 18 1 d . . .
O2 O 0.1638(4) 0.2496(4) 0.5088(3) Uani 0.0170(14) 18 1 d . . .
O3 O 0.1185(3) 0.0211(4) 0.2441(3) Uani 0.0170(14) 18 1 d . . .
O4 O 0.0455(3) 0.2380(3) 0.7348(3) Uani 0.0152(13) 18 1 d . . .
loop_
_atom_site_aniso_label
_atom_site_aniso_type_symbol
_atom_site_aniso_U_11
_atom_site_aniso_U_22
_atom_site_aniso_U_33
_atom_site_aniso_U_12
_atom_site_aniso_U_13
_atom_site_aniso_U_23
B1 B 0.010(3) 0.009(2) 0.016(2) 0.005(2) -0.0009(19) 0.0000(19)
B2 B 0.007(2) 0.011(2) 0.021(3) 0.0030(19) -0.001(2) -0.002(2)
Ba1 Ba 0.00800(16) 0.00829(18) 0.01698(16) 0.00417(10) -0.00034(14) 0.00009(15)
O1 O 0.0087(17) 0.0099(17) 0.032(2) 0.0047(14) 0.0000(15) 0.0000(15)
O2 O 0.0140(17) 0.0111(17) 0.0258(19) 0.0063(14) 0.0062(15) 0.0030(14)
O3 O 0.0068(16) 0.0073(18) 0.037(2) 0.0034(14) 0.0009(15) 0.0007(15)
O4 O 0.0145(16) 0.0099(17) 0.0205(17) 0.0056(14) 0.0024(13) -0.0008(14)
loop_
_atom_type_symbol
_atom_type_scat_dispersion_real
_atom_type_scat_dispersion_imag
_atom_type_scat_source
B 0.0013 0.0007 'International Tables Vol C tables 4.2.6.8 and 6.1.1.1'
Ba -0.3244 2.2819 'International Tables Vol C tables 4.2.6.8 and 6.1.1.1'
O 0.0106 0.0060 'International Tables Vol C tables 4.2.6.8 and 6.1.1.1'
loop_
_geom_angle_atom_site_label_1
_geom_angle_atom_site_label_2
_geom_angle_atom_site_label_3
_geom_angle_site_symmetry_1
_geom_angle_site_symmetry_2
_geom_angle_site_symmetry_3
_geom_angle
B2 O1 B2 2_555 . 3_555 124.8(7)
B1 O3 B1 . . 2_555 123.6(5)
loop_
_geom_bond_atom_site_label_1
_geom_bond_atom_site_label_2
_geom_bond_site_symmetry_1
_geom_bond_site_symmetry_2
_geom_bond_distance
O1 B2 . 2_555 1.419(8)
O1 B2 . 3_555 1.405(7)
O2 B2 . 2_555 1.321(8)
O3 B1 . . 1.413(6)
O3 B1 . 2_555 1.397(11)
O4 B1 . 6_555 1.328(10)
loop_
_refln_index_h
_refln_index_k
_refln_index_l
_refln_F_squared_calc
_refln_F_squared_meas
_refln_F_squared_sigma
_refln_observed_status
-1 2 0 67418.70 79886.00 269.59 o
-2 4 0 180613.00 231452.00 726.71 o
-1 5 0 148354.00 186566.00 304.18 o
-4 5 0 154639.00 115864.00 541.02 o
0 6 0 154168.00 172912.00 240.37 o
-6 6 0 152044.00 139709.00 337.35 o
-2 7 0 69487.50 74527.80 127.17 o
-5 7 0 72081.70 70560.30 151.59 o
-4 8 0 76855.50 76687.60 153.39 o
-1 8 0 23247.30 24940.80 86.12 o
-7 8 0 21917.80 19964.00 126.75 o
-3 9 0 134945.00 142338.00 156.75 o
-6 9 0 134278.00 127799.00 184.01 o
0 9 0 63060.60 66387.30 153.58 o
-9 9 0 61043.10 53982.20 218.40 o
-5 10 0 301.48 585.42 79.83 o
-2 10 0 260.73 496.69 68.74 o
-8 10 0 124.36 323.70 106.42 o
-4 11 0 18652.50 18812.80 96.63 o
-7 11 0 18043.00 16369.80 121.29 o
-1 11 0 7748.90 8173.56 77.99 o
-10 11 0 7493.02 6681.67 115.85 o
-6 12 0 9059.73 9017.77 93.68 o
-3 12 0 4727.96 5390.27 82.28 o
-9 12 0 5386.41 5009.92 115.68 o
0 12 0 1165.25 1246.77 108.70 o
-12 12 0 1229.46 1202.44 166.39 o
-5 13 0 3904.64 4240.08 91.11 o
-8 13 0 3929.09 4062.36 104.45 o
-2 13 0 1463.65 1761.74 82.10 o
-11 13 0 1679.63 1659.88 115.39 o
-7 14 0 20243.40 19701.20 118.87 o
-4 14 0 13050.20 13066.60 96.03 o
-10 14 0 13210.70 11993.50 118.37 o
-1 14 0 1995.89 2339.12 93.21 o
-13 14 0 2359.93 2059.89 133.18 o
-6 15 0 1509.63 1870.41 93.19 o
-9 15 0 1409.39 1484.27 110.93 o
-3 15 0 4835.95 5031.86 93.35 o
-12 15 0 4913.23 4487.52 117.80 o
-8 16 0 16375.00 15820.70 131.91 o
-5 16 0 21948.10 22526.60 116.58 o
-11 16 0 22534.70 20014.80 143.52 o
-7 17 0 13385.60 13650.00 129.45 o
-10 17 0 13083.00 12007.70 145.05 o
-2 3 1 18733.10 18484.70 149.28 o
-1 3 -1 18199.70 18507.50 144.41 o
-1 4 1 57363.40 63411.90 168.70 o
-3 4 -1 60135.80 62710.10 189.52 o
-3 5 1 16098.70 16263.80 104.78 o
-2 5 -1 14034.00 13992.40 106.69 o
-5 6 1 79165.90 74873.40 186.19 o
-1 6 -1 81730.20 89967.60 132.70 o
-2 6 1 176138.00 194979.00 304.34 o
-4 6 -1 172784.00 174622.00 369.33 o
-4 7 1 41321.80 41880.10 107.06 o
-3 7 -1 38864.70 38403.70 127.64 o
-1 7 1 103454.00 113130.00 148.33 o
-6 7 -1 106833.00 103429.00 176.11 o
-6 8 1 12726.60 11171.90 114.50 o
-2 8 -1 12784.90 13402.20 76.34 o
-3 8 1 6760.30 7007.58 78.13 o
-5 8 -1 7141.45 7043.82 96.03 o
-8 9 1 19000.40 17623.30 123.85 o
-1 9 -1 20666.90 21952.00 81.18 o
-5 9 1 96897.80 96401.40 144.83 o
-4 9 -1 98666.40 98798.00 161.97 o
-2 9 1 176770.00 196585.00 189.27 o
-7 9 -1 172110.00 163469.00 201.35 o
-7 10 1 27551.20 25148.70 124.60 o
-3 10 -1 24561.30 25404.50 90.41 o
-4 10 1 116493.00 120312.00 145.57 o
-6 10 -1 120449.00 117411.00 175.20 o
-1 10 1 140583.00 153126.00 146.72 o
-9 10 -1 142005.00 126332.00 205.60 o
-9 11 1 21009.50 18288.60 123.69 o
-2 11 -1 20378.20 20436.60 89.92 o
-6 11 1 5833.43 5298.95 93.51 o
-5 11 -1 5189.98 4889.21 84.57 o
-3 11 1 2705.92 2929.77 77.74 o
-8 11 -1 2995.88 2683.76 108.86 o
-11 12 1 6172.70 5705.43 120.16 o
-1 12 -1 6540.82 6968.67 84.58 o
-8 12 1 29645.50 28939.20 117.53 o
-4 12 -1 30521.80 32433.60 99.50 o
-5 12 1 93481.70 96434.00 146.00 o
-7 12 -1 90648.10 87248.80 155.14 o
-2 12 1 123489.00 130718.00 138.45 o
-10 12 -1 122373.00 108175.00 197.99 o
-10 13 1 12807.40 11943.80 111.69 o
-3 13 -1 13261.60 14047.20 91.61 o
-7 13 1 67431.30 64295.40 150.08 o
-6 13 -1 66488.20 67275.90 131.54 o
-4 13 1 109201.00 114521.00 158.27 o
-9 13 -1 111573.00 94624.10 189.23 o
-1 13 1 112493.00 117640.00 138.97 o
-12 13 -1 111449.00 96499.50 197.76 o
-12 14 1 1923.48 1704.38 115.40 o
-2 14 -1 2066.20 2117.32 93.22 o
-9 14 1 2302.96 2080.00 108.77 o
-5 14 -1 2363.35 2206.61 86.58 o
-6 14 1 2860.41 2780.18 108.81 o
-8 14 -1 2928.52 2744.75 99.93 o
-3 14 1 779.33 891.59 90.93 o
-11 14 -1 731.24 1126.66 130.85 o
-14 15 1 3562.21 3597.93 137.70 o
-1 15 -1 3390.17 3675.34 117.70 o
-11 15 1 5117.92 5132.81 117.82 o
-4 15 -1 5027.22 5179.25 97.81 o
-8 15 1 37339.30 35587.90 137.97 o
-7 15 -1 36705.90 36686.10 115.32 o
-5 15 1 64751.60 65814.40 137.62 o
-10 15 -1 66843.00 61412.30 163.02 o
-2 15 1 86585.20 89595.20 148.15 o
-13 15 -1 88206.70 75406.30 206.19 o
-13 16 1 11311.50 10503.40 140.46 o
-3 16 -1 11487.90 11866.70 113.72 o
-10 16 1 12684.10 11396.10 133.89 o
-6 16 -1 12941.40 13060.30 107.12 o
-7 16 1 49248.30 48027.60 156.86 o
-9 16 -1 49367.30 47746.30 143.23 o
-4 16 1 62769.10 63681.70 150.96 o
-12 16 -1 60972.40 54907.80 169.11 o
-9 17 1 3232.52 2928.90 137.67 o
-8 17 -1 2703.25 2728.33 122.10 o
-6 17 1 4155.06 4145.41 226.60 o
-11 17 -1 4629.86 4266.39 264.43 o
0 1 2 12696.70 13281.00 204.82 o
-1 1 -2 12731.20 12395.80 202.52 o
-2 2 2 24474.70 26454.40 221.05 o
0 2 -2 25158.40 26966.30 223.85 o
-1 3 2 1903.20 2443.27 122.50 o
-2 3 -2 1818.73 2367.06 97.98 o
-3 4 2 34160.10 35174.10 141.72 o
-1 4 -2 33825.30 35185.90 139.27 o
0 4 2 61499.40 69457.90 238.21 o
-4 4 -2 58938.80 64665.10 227.46 o
-5 5 2 181511.00 159130.00 488.70 o
0 5 -2 186429.00 168925.00 502.69 o
-2 5 2 63851.20 66684.80 181.02 o
-3 5 -2 61506.30 61144.60 175.52 o
-4 6 2 18200.90 18100.50 102.20 o
-2 6 -2 19213.40 20037.00 102.33 o
-1 6 2 3733.87 4223.33 86.87 o
-5 6 -2 4216.74 4765.30 84.70 o
-6 7 2 44035.10 41298.20 148.64 o
-1 7 -2 43075.20 45577.40 106.73 o
-3 7 2 42423.30 43950.90 111.69 o
-4 7 -2 43830.90 43222.90 132.84 o
0 7 2 56916.70 60763.40 180.51 o
-7 7 -2 56681.70 56929.30 180.48 o
-8 8 2 221384.00 185589.00 484.34 o
0 8 -2 225194.00 244833.00 291.94 o
-5 8 2 126977.00 126915.00 172.61 o
-3 8 -2 125620.00 131143.00 174.89 o
-2 8 2 55357.90 58608.00 116.85 o
-6 8 -2 55369.20 53329.20 135.55 o
-7 9 2 49892.20 47692.20 134.06 o
-2 9 -2 49439.30 51902.90 106.29 o
-4 9 2 9600.95 9722.41 91.68 o
-5 9 -2 10083.40 10039.80 100.67 o
-1 9 2 5920.87 5820.86 75.74 o
-8 9 -2 6358.40 5789.51 100.28 o
-9 10 2 60087.20 54056.90 155.00 o
-1 10 -2 57015.60 60484.30 110.81 o
-6 10 2 40824.80 39571.30 130.49 o
-4 10 -2 43273.80 44286.10 116.97 o
-3 10 2 37478.50 39392.90 102.69 o
-7 10 -2 37808.50 36147.90 123.25 o
0 10 2 12948.00 14134.10 114.07 o
-10 10 -2 11413.70 10401.20 165.35 o
-11 11 2 190526.00 173061.00 342.14 o
0 11 -2 191389.00 209838.00 257.96 o
-8 11 2 167976.00 161764.00 203.11 o
-3 11 -2 168078.00 179448.00 170.92 o
-5 11 2 85310.10 87400.70 143.59 o
-6 11 -2 80674.10 77673.40 154.87 o
-2 11 2 26399.00 27755.50 97.04 o
-9 11 -2 27743.40 24868.90 133.27 o
-10 12 2 52878.90 49489.90 139.65 o
-2 12 -2 51270.80 53806.40 112.07 o
-7 12 2 17069.20 16801.10 109.86 o
-5 12 -2 18260.50 18968.10 89.75 o
-4 12 2 9343.39 10195.40 89.22 o
-8 12 -2 10201.30 9440.01 104.89 o
-1 12 2 902.23 1009.25 79.85 o
-11 12 -2 964.53 845.14 115.35 o
-12 13 2 35444.50 32263.50 137.90 o
-1 13 -2 36197.70 37656.90 113.08 o
-9 13 2 38031.40 35899.30 133.77 o
-4 13 -2 39046.60 40108.70 106.63 o
-6 13 2 22085.30 21981.50 119.09 o
-7 13 -2 21823.60 20839.10 103.34 o
-3 13 2 2852.47 2995.66 88.83 o
-10 13 -2 2889.05 2342.84 122.14 o
0 13 2 5785.32 5977.80 117.87 o
-13 13 -2 6041.93 5184.59 197.95 o
-14 14 2 93921.50 88554.50 248.59 o
0 14 -2 91245.10 93776.70 213.46 o
-11 14 2 129809.00 120972.00 194.60 o
-3 14 -2 131431.00 138409.00 161.51 o
-8 14 2 91661.20 87888.50 172.59 o
-6 14 -2 92253.40 93564.60 139.98 o
-5 14 2 35636.80 36413.70 133.43 o
-9 14 -2 34452.20 32498.00 135.61 o
-2 14 2 1598.49 1948.15 88.75 o
-12 14 -2 1815.54 1748.66 139.80 o
-13 15 2 22258.90 21188.90 136.77 o
-2 15 -2 22447.20 22736.00 116.61 o
-10 15 2 25082.00 23996.00 134.80 o
-5 15 -2 26185.60 27010.90 110.15 o
-7 15 2 24944.40 24294.90 137.06 o
-8 15 -2 23831.80 23216.20 107.78 o
-4 15 2 10545.10 10809.80 111.46 o
-11 15 -2 10782.20 9591.58 147.15 o
-1 15 2 788.66 1006.89 102.02 o
-14 15 -2 780.47 964.75 155.25 o
-12 16 2 17570.60 16558.10 147.62 o
-4 16 -2 17774.60 18387.30 118.56 o
-9 16 2 8190.95 7427.06 138.03 o
-7 16 -2 7718.21 7616.67 111.29 o
-6 16 2 2875.69 3041.71 130.99 o
-10 16 -2 2868.16 2824.12 119.89 o
-3 16 2 3640.16 3651.31 117.71 o
-13 16 -2 3205.85 2689.04 164.32 o
-8 17 2 24407.60 23683.80 163.82 o
-9 17 -2 25477.30 25474.50 145.94 o
-3 6 3 9199.61 10224.00 107.67 o
-3 6 -3 9101.89 10003.00 107.65 o
-5 7 3 132966.00 140266.00 195.40 o
-2 7 -3 128872.00 133993.00 179.47 o
-2 7 3 118731.00 124654.00 187.74 o
-5 7 -3 120683.00 124950.00 200.64 o
-7 8 3 83607.40 81779.30 169.27 o
-1 8 -3 85087.10 88702.80 131.29 o
-4 8 3 65311.10 66825.20 143.91 o
-4 8 -3 63647.40 64734.40 143.69 o
-1 8 3 67875.10 72638.30 141.15 o
-7 8 -3 67646.60 67390.70 136.42 o
-6 9 3 1786.05 1909.49 86.59 o
-3 9 -3 2263.65 2392.28 86.63 o
-3 9 3 6180.30 6452.03 91.38 o
-6 9 -3 5834.53 5625.76 102.49 o
-8 10 3 38612.20 36701.00 127.69 o
-2 10 -3 35207.80 36804.50 100.09 o
-5 10 3 43824.10 44428.90 121.53 o
-5 10 -3 43835.10 44502.60 121.54 o
-2 10 3 39627.60 41606.50 111.82 o
-8 10 -3 44332.80 41909.60 132.80 o
-10 11 3 6176.02 6312.26 100.16 o
-1 11 -3 6342.03 6526.63 86.81 o
-7 11 3 10683.40 10252.20 109.45 o
-4 11 -3 12581.00 12526.90 93.94 o
-4 11 3 18670.00 19205.90 101.07 o
-7 11 -3 17365.70 17092.60 100.98 o
-1 11 3 10447.10 10739.70 84.81 o
-10 11 -3 9680.46 8095.45 122.69 o
-9 12 3 4091.69 3780.71 104.46 o
-3 12 -3 5020.88 5419.72 82.29 o
-6 12 3 12829.10 13015.10 98.36 o
-6 12 -3 12677.30 13188.20 102.82 o
-3 12 3 5309.32 5603.10 91.20 o
-9 12 -3 4621.77 4364.49 104.50 o
-11 13 3 3479.15 3338.63 104.40 o
-2 13 -3 3633.45 3712.14 88.86 o
-8 13 3 15624.00 14623.50 123.07 o
-5 13 -3 15313.50 15341.20 96.20 o
-5 13 3 17927.90 17959.80 109.80 o
-8 13 -3 18176.10 17263.20 112.06 o
-2 13 3 3449.28 3671.77 88.85 o
-11 13 -3 3230.03 2840.66 133.26 o
-13 14 3 2286.67 2255.11 122.08 o
-1 14 -3 2313.78 2343.92 99.88 o
-10 14 3 2525.25 2537.51 119.88 o
-4 14 -3 2572.91 2799.54 93.24 o
-7 14 3 4188.07 4386.63 117.78 o
-7 14 -3 4283.74 4486.87 93.34 o
-4 14 3 2683.09 3066.14 106.57 o
-10 14 -3 2496.61 2610.72 122.10 o
-1 14 3 4295.62 4357.19 106.65 o
-13 14 -3 4141.94 3696.98 146.63 o
-12 15 3 9457.08 9071.58 135.90 o
-3 15 -3 9163.99 9219.45 106.92 o
-9 15 3 21956.80 21947.10 148.03 o
-6 15 -3 21341.90 21901.90 114.35 o
-6 15 3 26174.30 26440.00 148.36 o
-9 15 -3 26528.80 26276.30 132.65 o
-3 15 3 3766.77 3998.28 102.18 o
-12 15 -3 3908.75 3536.51 135.51 o
-11 16 3 3665.55 3475.99 135.49 o
-5 16 -3 3824.10 3896.09 106.62 o
-8 16 3 1580.68 1721.75 146.44 o
-8 16 -3 1297.61 1557.33 115.36 o
-5 16 3 1398.41 1650.58 141.99 o
-11 16 -3 1170.98 1202.30 148.62 o
-1 1 4 187159.00 183224.00 687.52 o
0 2 4 22995.10 23450.70 187.53 o
-2 2 -4 19821.50 18293.20 177.22 o
-2 3 4 3509.09 3986.06 102.61 o
-1 3 -4 3703.58 4281.95 100.41 o
-4 4 4 23749.40 24702.70 155.85 o
0 4 -4 24959.60 23722.40 163.00 o
-1 4 4 14890.60 14435.80 111.08 o
-3 4 -4 14791.00 15002.60 102.00 o
-3 5 4 76067.50 76612.70 178.48 o
-2 5 -4 75648.20 77289.10 158.84 o
0 5 4 165578.00 177691.00 333.53 o
-5 5 -4 171775.00 190634.00 338.34 o
-5 6 4 21685.90 22680.70 113.55 o
-1 6 -4 21515.10 21327.70 115.80 o
-2 6 4 12861.30 12988.80 101.26 o
-4 6 -4 10572.50 11172.50 87.53 o
-7 7 4 47351.80 49069.70 196.70 o
0 7 -4 45070.50 45213.10 187.06 o
-4 7 4 19025.90 18999.60 99.49 o
-3 7 -4 18936.60 19203.60 99.48 o
-1 7 4 30666.20 30616.30 118.75 o
-6 7 -4 30435.60 30847.00 109.59 o
-6 8 4 35576.40 36168.10 123.55 o
-2 8 -4 35187.50 36208.40 109.79 o
-3 8 4 127807.00 133991.00 193.38 o
-5 8 -4 129980.00 137518.00 183.79 o
0 8 4 165092.00 176704.00 296.86 o
-8 8 -4 163296.00 163957.00 271.35 o
-8 9 4 4283.59 4219.38 97.87 o
-1 9 -4 3625.24 3772.63 77.81 o
-5 9 4 15342.20 15953.50 96.55 o
-4 9 -4 15533.80 15938.00 96.57 o
-2 9 4 74253.90 76494.60 152.66 o
-7 9 -4 74684.30 72809.90 150.36 o
-10 10 4 11306.80 11290.50 151.88 o
0 10 -4 11986.50 12372.50 122.90 o
-7 10 4 54637.00 54227.10 152.23 o
-3 10 -4 56117.40 57980.60 122.37 o
-4 10 4 59700.00 63159.10 127.41 o
-6 10 -4 60113.80 64125.70 134.40 o
-1 10 4 58925.40 61457.30 136.12 o
-9 10 -4 58408.20 56187.00 133.77 o
-9 11 4 16129.10 15944.00 114.25 o
-2 11 -4 16400.80 17333.70 91.87 o
-6 11 4 74075.70 76495.10 172.44 o
-5 11 -4 74557.20 76885.20 137.53 o
-3 11 4 139121.00 146251.00 172.02 o
-8 11 -4 136679.00 140054.00 181.44 o
0 11 4 178097.00 184395.00 301.82 o
-11 11 -4 176650.00 154058.00 343.27 o
-11 12 4 142.55 383.56 99.77 o
-1 12 -4 66.33 343.64 82.03 o
-8 12 4 7641.77 7600.49 118.06 o
-4 12 -4 7111.87 7580.16 91.30 o
-5 12 4 20739.90 21412.50 103.32 o
-7 12 -4 20736.70 21399.00 105.57 o
-2 12 4 33700.80 34701.00 113.08 o
-10 12 -4 35563.70 32257.30 124.53 o
-13 13 4 3698.25 3771.77 179.93 o
0 13 -4 3237.57 3628.72 139.91 o
-10 13 4 5314.01 5138.91 115.63 o
-3 13 -4 4727.60 4608.14 93.36 o
-7 13 4 15026.50 15346.10 118.55 o
-6 13 -4 15134.20 15221.80 107.37 o
-4 13 4 25516.20 26979.90 114.74 o
-9 13 -4 25478.20 25276.30 128.24 o
-1 13 4 28480.50 29726.20 108.06 o
-12 13 -4 28139.30 25394.60 148.56 o
-12 14 4 4875.38 4936.51 126.69 o
-2 14 -4 4678.33 5016.01 100.01 o
-9 14 4 34657.20 35121.50 169.45 o
-5 14 -4 34908.30 35510.40 112.98 o
-6 14 4 87072.40 88133.90 151.05 o
-8 14 -4 87532.00 86923.20 160.38 o
-3 14 4 124986.00 127033.00 172.60 o
-11 14 -4 125468.00 117750.00 219.94 o
0 14 4 119311.00 120294.00 230.29 o
-14 14 -4 121858.00 110081.00 305.86 o
-14 15 4 708.84 674.19 215.12 o
-1 15 -4 1044.70 1038.07 179.67 o
-11 15 4 8320.14 8040.02 144.73 o
-4 15 -4 8405.97 8430.03 111.33 o
-8 15 4 12517.60 12388.10 131.67 o
-7 15 -4 12921.40 12875.10 104.91 o
-5 15 4 22409.10 22560.20 121.12 o
-10 15 -4 22206.50 21651.70 123.35 o
-2 15 4 19707.40 19155.20 114.19 o
-13 15 -4 18917.80 17285.50 161.15 o
-10 16 4 3299.93 3288.81 139.90 o
-6 16 -4 3081.01 3186.30 106.58 o
-7 16 4 5748.03 5856.58 135.63 o
-9 16 -4 5549.33 5431.35 115.61 o
-4 16 4 20368.10 20151.80 120.94 o
-12 16 -4 20566.10 19813.30 154.55 o
-1 3 5 34213.80 33860.90 132.84 o
-2 3 -5 35173.90 32749.80 128.36 o
-3 4 5 38547.80 36406.60 137.53 o
-1 4 -5 39383.90 38552.50 128.35 o
-2 5 5 17400.50 17242.60 110.92 o
-3 5 -5 17190.20 17392.20 99.58 o
-4 6 5 75394.40 74128.80 163.00 o
-2 6 -5 71589.50 69728.00 155.22 o
-1 6 5 31180.00 31001.60 121.31 o
-5 6 -5 33209.40 33351.60 142.20 o
-6 7 5 109825.00 112422.00 190.40 o
-1 7 -5 109055.00 106549.00 175.65 o
-3 7 5 35632.40 36203.20 126.17 o
-4 7 -5 36248.20 38645.80 110.17 o
-5 8 5 5048.10 5121.44 89.07 o
-3 8 -5 5169.95 5213.29 91.31 o
-2 8 5 15187.50 15571.30 107.79 o
-6 8 -5 13944.90 14624.00 94.22 o
-7 9 5 137223.00 141788.00 191.04 o
-2 9 -5 134550.00 136846.00 173.57 o
-4 9 5 91495.50 95586.00 149.84 o
-5 9 -5 91931.60 95043.50 157.02 o
-1 9 5 16416.80 16592.70 107.70 o
-8 9 -5 16980.00 16886.80 98.77 o
-9 10 5 101372.00 104501.00 184.60 o
-1 10 -5 106065.00 112791.00 140.04 o
-6 10 5 101932.00 104522.00 159.47 o
-4 10 -5 105166.00 108825.00 159.82 o
-3 10 5 26928.30 28017.00 103.93 o
-7 10 -5 24570.70 25221.20 112.79 o
-8 11 5 4642.55 4691.88 140.09 o
-3 11 -5 4847.73 5030.54 97.85 o
-5 11 5 1327.46 1519.95 90.98 o
-6 11 -5 1235.46 1524.30 90.97 o
-2 11 5 3310.33 3618.98 88.86 o
-9 11 -5 2999.31 3005.23 113.28 o
-10 12 5 110608.00 109736.00 202.94 o
-2 12 -5 108510.00 112616.00 143.78 o
-7 12 5 82798.30 84799.70 149.12 o
-5 12 -5 81378.50 82862.30 146.67 o
-4 12 5 35488.60 36378.10 120.04 o
-8 12 -5 38228.80 38810.60 124.78 o
-1 12 5 5737.46 5796.26 102.31 o
-11 12 -5 5546.94 5030.59 126.77 o
-12 13 5 95684.90 96058.60 193.39 o
-1 13 -5 96002.10 100210.00 144.48 o
-9 13 5 82220.90 82305.00 178.67 o
-4 13 -5 80724.50 84837.70 134.47 o
-6 13 5 43751.40 44772.00 127.30 o
-7 13 -5 44167.50 44345.90 129.60 o
-3 13 5 11283.80 11529.70 109.32 o
-10 13 -5 10610.30 10327.80 115.97 o
-11 14 5 55.22 339.20 148.54 <
-3 14 -5 79.13 372.46 95.33 o
-8 14 5 2014.96 1957.50 115.41 o
-6 14 -5 2174.91 2210.71 99.88 o
-5 14 5 3463.84 3378.33 106.61 o
-9 14 -5 3416.26 3380.46 108.83 o
-2 14 5 3342.91 3295.69 108.82 o
-12 14 -5 3107.01 2831.19 162.10 o
-13 15 5 82211.60 80029.60 219.25 o
-2 15 -5 83181.80 86771.80 157.01 o
-10 15 5 50614.70 49467.40 172.90 o
-5 15 -5 49870.10 50604.20 131.90 o
-7 15 5 25700.40 26116.80 139.30 o
-8 15 -5 26006.40 25662.50 128.09 o
-4 15 5 3833.82 4085.00 117.73 o
-11 15 -5 3496.83 3697.85 122.15 o
-9 16 5 53983.50 53450.10 173.07 o
-7 16 -5 53494.10 53346.30 141.16 o
-6 16 5 11884.80 12348.90 149.43 o
-10 16 -5 12666.20 12494.20 131.64 o
-1 2 6 107933.00 98520.60 175.90 o
-1 2 -6 107739.00 92742.40 173.31 o
-2 4 6 87957.00 86076.30 166.63 o
-2 4 -6 86632.40 83958.20 163.94 o
-4 5 6 69146.10 67972.70 149.95 o
-1 5 -6 69379.10 68609.80 149.98 o
-1 5 6 52476.30 51031.90 140.44 o
-4 5 -6 54057.80 55729.60 133.63 o
-6 6 6 129735.00 130905.00 272.72 o
0 6 -6 125204.00 122986.00 264.30 o
-3 6 6 187480.00 188634.00 236.82 o
-3 6 -6 191492.00 188624.00 237.62 o
0 6 6 170183.00 173122.00 299.65 o
-6 6 -6 169327.00 181482.00 304.57 o
-5 7 6 27023.00 26726.30 115.78 o
-2 7 -6 26427.00 25444.20 122.52 o
-2 7 6 35582.30 35411.70 123.50 o
-5 7 -6 36256.50 37745.80 109.84 o
-7 8 6 22858.30 22539.70 121.84 o
-1 8 -6 23838.30 24116.70 103.86 o
-4 8 6 45346.50 45341.70 133.40 o
-4 8 -6 44925.20 46441.60 121.86 o
-1 8 6 20969.90 21482.20 112.65 o
-7 8 -6 20801.50 21734.00 103.62 o
-9 9 6 33599.10 33895.00 197.25 o
0 9 -6 32174.30 32954.80 138.17 o
-6 9 6 72525.60 73850.10 149.55 o
-3 9 -6 73884.70 76007.30 140.34 o
-3 9 6 66032.90 66024.30 151.19 o
-6 9 -6 66543.50 70383.10 130.30 o
0 9 6 47865.70 49322.30 189.95 o
-9 9 -6 45039.70 43178.00 182.74 o
-8 10 6 893.92 1169.02 110.91 o
-2 10 -6 1138.18 1484.26 86.53 o
-5 10 6 3932.25 4125.92 88.92 o
-5 10 -6 3529.21 3764.73 88.90 o
-2 10 6 1188.16 1502.06 93.19 o
-8 10 -6 1508.94 1719.86 88.77 o
-10 11 6 4766.31 4779.98 128.95 o
-1 11 -6 5345.80 5615.63 84.51 o
-7 11 6 28534.80 28975.30 117.38 o
-4 11 -6 27605.40 28329.00 108.29 o
-4 11 6 17805.90 18002.40 103.14 o
-7 11 -6 16154.70 16671.10 109.75 o
-1 11 6 4414.57 4565.59 104.47 o
-10 11 -6 4923.31 4624.78 131.18 o
-12 12 6 2532.81 2453.09 177.60 o
0 12 -6 2684.83 3026.10 133.21 o
-9 12 6 8221.67 8121.82 120.29 o
-3 12 -6 7919.05 8265.16 89.09 o
-6 12 6 7098.93 7144.61 97.96 o
-6 12 -6 7746.81 7688.62 106.91 o
-3 12 6 4051.17 3977.73 95.55 o
-9 12 -6 3726.31 3632.60 111.09 o
0 12 6 707.67 736.31 153.03 o
-12 12 -6 968.77 1124.58 197.41 o
-11 13 6 2682.68 2928.38 142.09 o
-2 13 -6 2516.67 2335.39 97.68 o
-8 13 6 2785.96 3059.75 122.12 o
-5 13 -6 3139.81 3377.94 97.72 o
-5 13 6 5168.41 5476.25 102.28 o
-8 13 -6 5483.51 5779.65 111.19 o
-2 13 6 1735.20 1988.24 104.29 o
-11 13 -6 1602.03 1757.34 124.26 o
-13 14 6 181.93 314.83 152.98 <
-1 14 -6 122.14 263.83 106.42 <
-10 14 6 7194.19 7381.62 133.52 o
-4 14 -6 6770.64 7155.26 104.57 o
-7 14 6 11283.00 11669.60 113.75 o
-7 14 -6 12145.10 12498.40 118.27 o
-4 14 6 9917.78 9770.13 113.66 o
-10 14 -6 9908.36 9709.91 127.03 o
-1 14 6 1517.02 1703.92 108.71 o
-13 14 -6 1652.45 1644.13 175.29 o
-12 15 6 3196.38 3408.49 159.88 o
-3 15 -6 3489.29 3735.46 111.04 o
-9 15 6 819.77 1020.22 133.07 o
-6 15 -6 831.59 1120.04 102.02 o
-6 15 6 404.62 667.44 115.31 o
-9 15 -6 391.34 694.04 126.39 o
-3 15 6 1643.52 1637.46 119.81 o
-12 15 -6 1933.29 1890.68 157.56 o
-8 16 6 21753.40 22474.30 154.64 o
-8 16 -6 20452.20 19911.00 136.62 o
-2 3 7 7621.33 7011.83 91.67 o
-1 3 -7 7261.70 6474.85 87.17 o
-1 4 7 28227.80 28230.20 118.68 o
-3 4 -7 30100.40 27739.60 114.33 o
-3 5 7 10196.40 9905.67 98.52 o
-2 5 -7 9083.11 8586.54 93.94 o
-5 6 7 41917.80 41068.20 144.80 o
-1 6 -7 44787.40 42536.50 131.33 o
-2 6 7 113203.00 109160.00 178.32 o
-4 6 -7 110658.00 113704.00 165.76 o
-4 7 7 29721.50 29397.40 124.96 o
-3 7 -7 29365.00 29606.90 111.30 o
-1 7 7 72281.80 72368.20 152.42 o
-6 7 -7 72207.70 74591.70 150.07 o
-6 8 7 11090.90 11398.60 107.30 o
-2 8 -7 10684.20 10700.10 107.27 o
-3 8 7 2611.59 2845.60 95.52 o
-5 8 -7 2820.38 3019.35 86.65 o
-8 9 7 19774.10 19743.00 141.52 o
-1 9 -7 21041.80 21533.40 103.42 o
-5 9 7 52783.20 53905.00 131.12 o
-4 9 -7 52481.80 52760.00 128.79 o
-2 9 7 113461.00 115311.00 174.48 o
-7 9 -7 110544.00 114954.00 164.61 o
-7 10 7 28012.00 28639.70 119.64 o
-3 10 -7 25436.10 26298.30 108.18 o
-4 10 7 50770.20 50991.30 142.06 o
-6 10 -7 52925.00 53764.00 133.07 o
-1 10 7 99099.40 102084.00 167.02 o
-9 10 -7 103478.00 104779.00 174.52 o
-9 11 7 11085.00 10847.40 129.43 o
-2 11 -7 10800.90 10798.80 102.63 o
-6 11 7 4886.82 5003.23 100.07 o
-5 11 -7 4505.10 4648.58 95.59 o
-3 11 7 1810.85 1948.61 102.09 o
-8 11 -7 1892.97 2081.88 102.10 o
-11 12 7 5084.40 5097.54 142.28 o
-1 12 -7 5086.93 5415.45 95.59 o
-8 12 7 16088.00 16640.20 111.88 o
-4 12 -7 17494.90 18017.30 105.25 o
-5 12 7 71096.80 72457.90 138.49 o
-7 12 -7 69357.90 70036.00 149.89 o
-2 12 7 95758.80 99055.10 154.07 o
-10 12 -7 94379.00 90658.40 184.28 o
-10 13 7 8791.43 8747.09 140.33 o
-3 13 -7 8809.22 9370.86 100.24 o
-7 13 7 46372.10 46656.70 134.14 o
-6 13 -7 46746.50 45567.70 131.90 o
-4 13 7 81597.20 84505.30 152.78 o
-9 13 -7 81729.20 80684.30 164.37 o
-1 13 7 78896.90 80767.20 149.97 o
-12 13 -7 78327.70 72302.40 249.11 o
-12 14 7 2255.48 2175.10 157.58 o
-2 14 -7 2111.49 2234.86 106.53 o
-9 14 7 1474.73 1439.91 133.12 o
-5 14 -7 1459.83 1386.65 108.71 o
-6 14 7 1463.17 1766.05 108.71 o
-8 14 -7 1586.97 1766.16 110.94 o
-3 14 7 712.87 813.92 110.89 o
-11 14 -7 733.81 1000.22 126.41 o
-11 15 7 4821.55 5082.46 160.01 o
-4 15 -7 4715.81 5026.63 111.11 o
-8 15 7 24398.50 25212.80 159.36 o
-7 15 -7 24395.90 24319.40 134.67 o
-5 15 7 54731.50 56445.70 150.36 o
-10 15 -7 55528.20 53377.30 161.81 o
0 1 8 18135.60 17815.80 140.09 o
-1 1 -8 17425.90 16168.00 137.73 o
-2 2 8 28208.50 26056.70 150.54 o
0 2 -8 27413.30 24652.70 148.14 o
-1 3 8 539.08 707.58 84.29 o
-2 3 -8 600.91 707.62 84.29 o
-3 4 8 22989.70 22137.80 106.43 o
-1 4 -8 23373.20 22403.80 106.47 o
0 4 8 34466.20 35054.00 173.76 o
-4 4 -8 34525.60 30713.80 166.91 o
-5 5 8 52213.90 49272.10 189.78 o
0 5 -8 55466.60 56337.40 201.88 o
-2 5 8 26440.70 25900.60 131.59 o
-3 5 -8 24957.30 23270.60 126.89 o
-4 6 8 23249.50 23423.00 110.71 o
-2 6 -8 23074.40 22999.50 112.95 o
-1 6 8 613.35 920.48 93.16 o
-5 6 -8 398.42 512.28 88.71 o
-6 7 8 35022.00 35553.30 120.56 o
-1 7 -8 35639.10 34090.00 127.44 o
-3 7 8 40735.10 39509.90 132.63 o
-4 7 -8 41996.00 43493.20 114.44 o
0 7 8 32812.40 33363.40 174.73 o
-7 7 -8 31984.10 30801.80 204.11 o
-8 8 8 148009.00 154888.00 275.00 o
0 8 -8 148804.00 144984.00 272.70 o
-5 8 8 73097.90 72476.00 156.32 o
-3 8 -8 73822.60 76655.10 142.39 o
-2 8 8 35406.70 35046.40 124.98 o
-6 8 -8 35540.60 36515.40 115.90 o
-7 9 8 14396.80 14758.60 114.13 o
-2 9 -8 13322.60 13717.40 98.40 o
-4 9 8 4735.12 4786.09 104.53 o
-5 9 -8 4541.64 4814.38 91.17 o
-1 9 8 4760.46 4438.46 102.29 o
-8 9 -8 4564.83 4495.72 106.72 o
-9 10 8 31754.00 31453.80 164.89 o
-1 10 -8 30082.90 29699.20 112.83 o
-6 10 8 16376.70 16789.60 107.51 o
-4 10 -8 16158.10 16435.80 103.02 o
-3 10 8 8037.28 8185.80 109.17 o
-7 10 -8 8081.20 8286.29 95.81 o
0 10 8 9125.23 9097.31 162.69 o
-10 10 -8 9297.88 9104.90 153.79 o
-11 11 8 126740.00 121223.00 402.71 o
0 11 -8 124795.00 127982.00 222.46 o
-8 11 8 119880.00 125573.00 184.93 o
-3 11 -8 119614.00 121094.00 165.94 o
-5 11 8 56372.40 58126.00 132.88 o
-6 11 -8 55612.30 56344.20 135.12 o
-2 11 8 14357.10 14325.20 118.46 o
-9 11 -8 15042.40 14543.20 116.27 o
-10 12 8 30558.20 30590.80 166.77 o
-2 12 -8 31500.40 32867.60 108.23 o
-7 12 8 16675.80 17443.30 114.13 o
-5 12 -8 16837.00 17469.50 111.90 o
-4 12 8 7949.20 8025.35 104.66 o
-8 12 -8 8107.36 7979.29 111.35 o
-1 12 8 1556.67 1803.87 122.03 o
-11 12 -8 1669.24 1577.65 161.98 o
-12 13 8 26073.80 25059.20 204.43 o
-1 13 -8 26569.50 26789.00 121.34 o
-9 13 8 26973.20 27960.60 157.41 o
-4 13 -8 27756.30 28275.70 123.73 o
-6 13 8 15074.40 15720.60 118.45 o
-7 13 -8 14941.90 14926.10 120.68 o
-3 13 8 4200.25 4472.57 111.09 o
-10 13 -8 3849.57 3774.22 128.84 o
0 13 8 3175.02 3617.18 195.40 o
-13 13 -8 3003.13 2577.77 255.33 o
-11 14 8 76539.50 76696.60 218.73 o
-3 14 -8 77496.40 80012.10 145.12 o
-8 14 8 53127.20 54173.10 148.05 o
-6 14 -8 53549.50 53312.00 148.08 o
-5 14 8 21262.50 22161.30 129.99 o
-9 14 -8 20518.50 20519.70 134.42 o
-2 14 8 538.33 813.84 117.53 o
-12 14 -8 475.65 616.46 157.44 o
-10 15 8 18345.40 18455.50 232.68 o
-5 15 -8 19008.70 19191.20 201.42 o
-7 15 8 17849.40 18333.40 131.98 o
-8 15 -8 18047.90 17865.40 138.70 o
-1 2 9 199750.00 189062.00 222.83 o
-1 2 -9 200757.00 177469.00 204.63 o
-2 4 9 164254.00 162218.00 204.51 o
-2 4 -9 163762.00 152971.00 199.39 o
-4 5 9 116965.00 115834.00 174.38 o
-1 5 -9 116212.00 113655.00 176.71 o
-1 5 9 110817.00 111710.00 178.43 o
-4 5 -9 111248.00 104871.00 171.25 o
-3 6 9 852.25 1027.11 88.74 o
-3 6 -9 744.27 911.68 90.95 o
-5 7 9 80341.70 81787.30 154.63 o
-2 7 -9 80975.80 80560.90 150.01 o
-2 7 9 86589.00 85047.80 159.98 o
-5 7 -9 85034.30 86525.20 150.41 o
-7 8 9 41843.50 42816.30 129.79 o
-1 8 -9 42041.30 40505.60 129.80 o
-4 8 9 47843.00 46594.80 137.31 o
-4 8 -9 47016.50 48278.30 121.23 o
-1 8 9 27202.50 26674.90 121.82 o
-7 8 -9 27730.50 28148.50 126.38 o
-6 9 9 1479.56 1701.98 97.64 o
-3 9 -9 1190.35 1311.20 90.96 o
-3 9 9 3224.32 3378.84 102.19 o
-6 9 -9 3643.65 3766.37 93.33 o
-8 10 9 12585.70 12959.60 120.60 o
-2 10 -9 13935.50 14172.20 105.04 o
-5 10 9 29439.70 30005.90 117.32 o
-5 10 -9 29761.80 29964.20 121.86 o
-2 10 9 25316.40 25642.40 128.24 o
-8 10 -9 25200.70 25251.60 123.73 o
-10 11 9 5039.76 4981.77 166.73 o
-1 11 -9 4523.10 5040.38 91.12 o
-7 11 9 3955.67 4106.13 104.43 o
-4 11 -9 3486.97 3769.62 104.40 o
-4 11 9 5409.41 5577.21 115.64 o
-7 11 -9 6206.28 6454.06 113.46 o
-1 11 9 4616.59 5025.08 111.12 o
-10 11 -9 4564.92 4953.82 120.01 o
-9 12 9 4442.34 4746.67 142.22 o
-3 12 -9 4345.79 4470.88 111.11 o
-6 12 9 8346.39 8402.72 113.58 o
-6 12 -9 8095.59 8161.08 109.11 o
-3 12 9 3320.98 3660.03 117.71 o
-9 12 -9 3909.37 3910.00 128.85 o
-11 13 9 2309.40 2266.16 173.12 o
-2 13 -9 2288.77 2457.02 104.32 o
-8 13 9 4803.27 5067.35 117.79 o
-5 13 -9 4763.09 4829.44 108.90 o
-5 13 9 8877.46 9194.11 122.50 o
-8 13 -9 8698.47 8540.73 122.49 o
-2 13 9 2289.60 2339.39 108.76 o
-11 13 -9 2137.96 1957.47 173.11 o
-10 14 9 2658.21 2788.21 153.17 o
-4 14 -9 2537.74 2697.03 108.77 o
-7 14 9 1365.14 1546.28 117.58 o
-7 14 -9 1445.06 1690.55 117.58 o
-4 14 9 1715.11 1839.43 113.16 o
-10 14 -9 1691.75 1954.79 139.79 o
-1 1 10 9139.25 9039.85 134.02 o
0 1 -10 9436.48 8749.37 129.59 o
0 2 10 15246.60 14361.30 132.41 o
-2 2 -10 14833.40 12633.50 127.88 o
-2 3 10 339.85 478.99 86.48 o
-1 3 -10 391.14 428.00 84.27 o
-4 4 10 21624.10 20849.30 155.44 o
0 4 -10 21075.10 20633.80 153.13 o
-1 4 10 9839.84 9671.30 98.28 o
-3 4 -10 9985.85 8814.59 91.59 o
-3 5 10 25995.80 26048.90 117.48 o
-2 5 -10 25204.80 24279.60 115.15 o
0 5 10 43177.50 43195.50 187.35 o
-5 5 -10 44486.10 40366.70 182.95 o
-5 6 10 2097.88 2040.30 102.13 o
-1 6 -10 2260.76 2173.76 93.26 o
-2 6 10 6022.06 5968.60 95.73 o
-4 6 -10 5756.13 5339.81 97.94 o
-7 7 10 23851.20 24461.20 180.03 o
0 7 -10 22126.60 20842.80 159.60 o
-4 7 10 16719.40 17056.70 107.60 o
-3 7 -10 17233.70 16874.10 109.88 o
-1 7 10 19877.50 19922.20 119.01 o
-6 7 -10 19998.70 19537.40 114.53 o
-6 8 10 16896.90 17517.10 105.29 o
-2 8 -10 16649.40 15605.90 109.76 o
-3 8 10 69944.60 68931.80 155.08 o
-5 8 -10 70674.30 72683.30 143.57 o
0 8 10 85531.70 84877.80 223.64 o
-8 8 -10 86073.90 87893.40 226.04 o
-8 9 10 330.42 521.08 121.96 o
-1 9 -10 284.07 365.86 108.65 o
-5 9 10 5617.92 5483.29 106.77 o
-4 9 -10 6031.39 5974.15 100.12 o
-2 9 10 25247.70 25316.80 128.25 o
-7 9 -10 25195.50 25615.30 123.75 o
-10 10 10 9255.21 9261.87 236.17 o
0 10 -10 8872.82 8466.96 173.75 o
-7 10 10 16449.80 16881.10 125.31 o
-3 10 -10 17092.80 16822.30 109.69 o
-4 10 10 23047.60 23619.40 123.54 o
-6 10 -10 24276.20 25029.40 114.64 o
-1 10 10 33391.90 33158.30 135.46 o
-9 10 -10 31460.60 31657.90 135.32 o
-9 11 10 6269.10 6537.51 140.14 o
-2 11 -10 6680.91 6910.50 113.47 o
-6 11 10 55953.70 57037.10 146.24 o
-5 11 -10 54677.20 54201.20 143.86 o
-3 11 10 81761.20 83872.40 173.61 o
-8 11 -10 81309.40 80902.30 164.31 o
0 11 10 90394.10 93136.70 262.17 o
-11 11 -10 89950.00 89143.10 245.87 o
-11 12 10 240.44 505.52 170.73 <
-1 12 -10 181.37 585.33 108.64 o
-8 12 10 3506.57 3742.45 126.60 o
-4 12 -10 3769.12 3876.25 113.29 o
-5 12 10 14288.70 14753.70 118.39 o
-7 12 -10 15095.60 14987.90 127.38 o
-2 12 10 18635.80 19070.00 136.53 o
-10 12 -10 18216.40 16257.50 201.40 o
-10 13 10 4139.85 4345.43 166.62 o
-3 13 -10 4178.60 4176.67 119.97 o
-7 13 10 8965.95 9391.95 126.95 o
-6 13 -10 8977.78 8835.21 122.50 o
-4 13 10 13436.90 13968.70 120.54 o
-9 13 -10 13336.30 12965.80 145.08 o
-6 14 10 41466.40 42112.00 151.61 o
-8 14 -10 41896.70 39499.80 183.33 o
-1 3 11 16264.90 16211.60 98.69 o
-2 3 -11 16839.70 14717.20 96.48 o
-3 4 11 10642.70 10445.50 100.50 o
-1 4 -11 11258.00 10454.40 98.31 o
-2 5 11 7335.21 7886.86 102.49 o
-3 5 -11 6954.22 6666.48 98.00 o
-4 6 11 38698.70 39903.70 152.25 o
-2 6 -11 36289.40 35743.10 145.21 o
-1 6 11 11344.70 11462.10 118.35 o
-5 6 -11 12140.50 10482.60 111.71 o
-6 7 11 49687.00 49788.70 141.60 o
-1 7 -11 50524.40 46854.20 141.67 o
-3 7 11 15634.90 15410.20 116.40 o
-4 7 -11 15204.20 14560.10 109.66 o
-5 8 11 312.24 569.86 115.30 o
-3 8 -11 371.94 729.53 99.78 o
-2 8 11 6053.92 5893.67 109.02 o
-6 8 -11 5874.60 5886.37 109.01 o
-7 9 11 63225.40 65487.70 169.88 o
-2 9 -11 61148.30 57225.80 151.34 o
-4 9 11 37562.80 37812.30 138.14 o
-5 9 -11 38220.70 38870.60 126.86 o
-1 9 11 9852.65 10102.10 118.14 o
-8 9 -11 10570.50 10297.90 115.96 o
-9 10 11 54765.10 56538.50 221.29 o
-1 10 -11 56808.10 58488.60 148.44 o
-6 10 11 39223.80 39723.10 140.41 o
-4 10 -11 41225.80 40674.80 136.03 o
-3 10 11 19751.20 20002.00 127.73 o
-7 10 -11 18539.20 18215.30 123.17 o
-8 11 11 3932.48 4178.71 131.07 o
-3 11 -11 4156.42 4054.78 111.09 o
-5 11 11 2708.82 2810.70 108.79 o
-6 11 -11 2404.92 2404.02 113.21 o
-2 11 11 2175.08 2503.55 122.07 o
-9 11 -11 1645.78 1795.04 166.41 o
-10 12 11 56082.30 57446.50 255.31 o
-2 12 -11 55454.60 56357.90 152.68 o
-7 12 11 45116.20 46681.00 154.25 o
-5 12 -11 44135.00 43456.70 145.10 o
-4 12 11 15978.10 16296.40 136.34 o
-8 12 -11 17236.20 16825.70 149.85 o
-1 12 11 1907.36 1686.49 148.68 o
-11 12 -11 1916.93 1846.27 181.96 o
-9 13 11 41139.50 43507.70 178.74 o
-4 13 -11 40826.10 39241.50 235.26 o
-6 13 11 21862.30 22337.30 136.72 o
-7 13 -11 21415.80 20364.90 143.41 o
0 0 12 104737.00 102112.00 379.99 o
0 0 -12 96711.00 87437.80 361.52 o
-1 2 12 54816.10 54632.00 126.42 o
-1 2 -12 56043.20 49458.00 124.22 o
-3 3 12 136016.00 134814.00 250.95 o
0 3 -12 138183.00 126715.00 246.44 o
0 3 12 147405.00 151685.00 264.79 o
-3 3 -12 145767.00 128143.00 249.98 o
-2 4 12 27276.40 27623.90 119.56 o
-2 4 -12 26537.30 24133.90 112.74 o
-4 5 12 17359.20 17702.70 109.80 o
-1 5 -12 17624.90 17163.20 112.06 o
-1 5 12 21126.10 22307.60 116.79 o
-4 5 -12 20351.40 18363.80 116.74 o
-6 6 12 69840.20 71469.70 233.08 o
0 6 -12 69956.50 71322.00 226.17 o
-3 6 12 88942.40 90982.80 163.53 o
-3 6 -12 90951.70 85352.40 159.04 o
0 6 12 77754.10 78434.30 227.16 o
-6 6 -12 78872.10 77258.50 241.21 o
-5 7 12 6498.67 6851.83 109.04 o
-2 7 -12 6255.69 6510.43 109.03 o
-2 7 12 11424.60 11761.10 122.74 o
-5 7 -12 11011.60 10560.10 113.79 o
-7 8 12 14431.10 15188.90 129.61 o
-1 8 -12 14463.90 13609.30 125.14 o
-4 8 12 14614.20 14945.30 127.41 o
-4 8 -12 14473.70 14360.80 122.93 o
-1 8 12 11602.40 12026.10 127.18 o
-7 8 -12 11950.80 11381.20 140.59 o
-9 9 12 13687.10 15612.40 189.80 o
0 9 -12 12522.40 12182.00 174.06 o
-6 9 12 22689.90 22856.60 141.40 o
-3 9 -12 22027.40 20634.10 132.37 o
-3 9 12 20469.30 21049.40 134.50 o
-6 9 -12 19848.90 19747.10 123.25 o
0 9 12 12600.10 13142.10 198.62 o
-9 9 -12 12291.50 11964.10 174.04 o
-8 10 12 2366.28 2492.71 142.06 o
-2 10 -12 2558.00 2841.48 111.00 o
-5 10 12 1567.85 1655.22 119.82 o
-5 10 -12 1582.87 1726.23 119.82 o
-2 10 12 2918.56 2990.78 126.56 o
-8 10 -12 3164.76 3099.98 146.56 o
-10 11 12 2036.74 2341.27 193.07 o
-1 11 -12 2045.22 2143.77 124.28 o
-7 11 12 13801.50 14005.80 133.96 o
-4 11 -12 13926.00 13723.10 122.81 o
-4 11 12 9733.37 9872.57 135.91 o
-7 11 -12 9468.11 9479.14 140.35 o
-1 11 12 1695.39 1848.29 142.01 o
-10 11 -12 1754.96 1706.34 133.13 o
-9 12 12 4256.00 4978.76 257.71 o
-3 12 -12 4434.81 3919.37 199.97 o
-6 12 12 4636.99 4962.04 133.33 o
-6 12 -12 4755.69 4744.55 131.11 o
-3 12 12 3944.32 4389.33 184.37 o
-9 12 -12 3729.04 2842.99 304.29 o
-2 3 13 5338.93 5573.80 97.86 o
-1 3 -13 5394.82 4926.73 97.87 o
-1 4 13 11186.10 11710.10 107.12 o
-3 4 -13 11243.00 10072.30 107.13 o
-3 5 13 3040.18 3258.05 106.60 o
-2 5 -13 3022.95 3242.47 104.38 o
-5 6 13 13031.50 13819.50 127.30 o
-1 6 -13 13253.80 13379.00 122.85 o
-2 6 13 27108.70 28979.30 130.57 o
-4 6 -13 27035.20 26074.20 153.07 o
-4 7 13 10734.20 11657.10 120.43 o
-3 7 -13 11143.60 10843.40 111.53 o
-1 7 13 39042.00 38816.20 149.44 o
-6 7 -13 38369.60 36206.10 147.12 o
-6 8 13 4102.28 4745.82 117.76 o
-2 8 -13 4178.67 3903.91 117.76 o
-3 8 13 1573.31 1928.16 124.25 o
-5 8 -13 1487.62 1477.67 108.72 o
-8 9 13 12847.90 13548.40 203.08 o
-1 9 -13 13001.40 12092.10 136.14 o
-5 9 13 25678.50 25895.90 143.80 o
-4 9 -13 24794.40 24779.00 125.77 o
-2 9 13 36195.20 37137.80 144.56 o
-7 9 -13 36723.70 35512.00 160.41 o
-7 10 13 7646.88 8134.68 144.67 o
-3 10 -13 8067.23 7769.12 120.21 o
-4 10 13 25360.00 26754.60 161.70 o
-6 10 -13 24275.10 24084.50 139.16 o
-1 10 13 44969.10 47964.50 163.23 o
-9 10 -13 45887.10 44794.80 158.77 o
-6 11 13 479.62 640.85 130.83 o
-5 11 -13 516.83 572.12 130.83 o
-3 11 13 856.68 1069.02 144.16 o
-8 11 -13 872.43 767.40 153.04 o
0 1 14 618.76 751.81 139.72 o
-1 1 -14 403.18 556.58 133.05 o
-2 2 14 6622.43 6814.25 144.65 o
0 2 -14 6302.95 5422.36 140.18 o
-1 3 14 162.08 518.81 101.99 o
-2 3 -14 184.79 423.48 101.99 o
-3 4 14 4866.21 5221.86 106.71 o
-1 4 -14 5062.48 4842.26 108.94 o
0 4 14 7473.34 8212.42 155.83 o
-4 4 -14 7468.41 6714.17 153.61 o
-5 5 14 25240.00 27124.40 182.04 o
0 5 -14 24837.30 24851.40 193.24 o
-2 5 14 10153.20 10821.50 118.16 o
-3 5 -14 10246.50 9377.37 113.71 o
-4 6 14 5410.21 5921.03 131.18 o
-2 6 -14 5257.16 5229.11 126.73 o
-1 6 14 563.96 612.06 119.75 o
-5 6 -14 487.89 627.56 128.62 o
-6 7 14 10933.10 11661.30 133.78 o
-1 7 -14 11657.70 10985.40 127.14 o
-3 7 14 13678.30 14619.90 129.52 o
-4 7 -14 13903.80 13451.40 127.30 o
0 7 14 10835.40 10788.30 189.50 o
-7 7 -14 10427.60 10175.30 189.46 o
-8 8 14 51799.50 60136.90 245.72 o
0 8 -14 50833.30 48840.30 234.23 o
-5 8 14 30232.40 31628.20 157.62 o
-3 8 -14 30919.10 29681.80 144.16 o
-2 8 14 10502.20 11051.40 144.88 o
-6 8 -14 10521.60 10451.90 133.74 o
-7 9 14 6969.87 7493.07 157.96 o
-2 9 -14 6581.95 6726.43 133.46 o
-4 9 14 3270.47 4028.26 144.34 o
-5 9 -14 3158.63 3170.91 119.91 o
-1 9 14 1242.09 1492.94 137.54 o
-8 9 -14 1079.49 1104.64 128.65 o
-6 10 14 11796.60 12809.60 149.41 o
-4 10 -14 11190.20 11187.10 138.22 o
-3 10 14 4492.65 4699.39 184.42 o
-7 10 -14 4301.76 3185.95 264.39 o
-1 2 15 68106.20 71991.40 151.74 o
-1 2 -15 68954.30 54788.60 142.61 o
-2 4 15 47230.10 51228.30 147.74 o
-2 4 -15 46388.70 42222.90 143.13 o
-4 5 15 44468.00 46982.20 152.00 o
-1 5 -15 43142.90 41627.20 147.37 o
-1 5 15 32140.70 35955.30 151.04 o
-4 5 -15 32901.40 29819.20 142.08 o
-3 6 15 158.54 337.00 117.51 <
-3 6 -15 137.46 512.15 124.16 o
-5 7 15 24666.10 27318.00 150.41 o
-2 7 -15 25261.10 24586.60 143.72 o
-2 7 15 30431.30 32555.20 159.85 o
-5 7 -15 29953.40 27944.40 150.81 o
-7 8 15 13343.10 15461.70 174.08 o
-1 8 -15 13160.10 12894.00 145.05 o
-4 8 15 19709.30 20558.80 156.73 o
-4 8 -15 20181.50 19338.60 147.81 o
-1 8 15 11183.50 12660.60 149.37 o
-7 8 -15 11186.70 11383.20 309.88 o
-1 1 16 1226.33 1464.12 155.29 o
0 1 -16 942.62 909.40 159.70 o
0 2 16 4263.86 4672.60 166.64 o
-2 2 -16 4600.15 3795.62 160.00 o
-2 3 16 142.32 370.26 115.29 o
-1 3 -16 139.69 301.53 115.29 <
-4 4 16 7869.77 8680.92 178.07 o
0 4 -16 8027.17 7577.49 169.18 o
-1 4 16 4719.95 5418.03 128.90 o
-3 4 -16 4794.85 4307.03 124.46 o
-3 5 16 6704.95 7334.26 131.25 o
-2 5 -16 6288.10 6016.07 126.77 o
0 5 16 13366.10 15257.50 205.34 o
-5 5 -16 12934.20 11884.70 198.60 o
-5 6 16 183.10 412.39 150.77 <
-1 6 -16 121.03 203.97 144.11 <
-2 6 16 2527.91 2967.83 137.63 o
-4 6 -16 2710.39 2708.37 133.20 o
-1 3 17 3839.86 4269.19 128.83 o
-2 3 -17 3888.65 3214.19 122.17 o
