#------------------------------------------------------------------------------
#$Date: 2021-05-18 19:36:50 +0300 (Tue, 18 May 2021) $
#$Revision: 265307 $
#$URL: file:///home/coder/svn-repositories/cod/cif/3/00/01/3000105.cif $
#------------------------------------------------------------------------------
#
# This file is available in the Crystallography Open Database (COD),
# http://www.crystallography.net/
#
# All data on this site have been placed in the public domain by the
# contributors.
#
data_3000105
loop_
_publ_author_name
'Bubnova, Rimma'
'Volkov, Sergey'
'Barbara Albert'
'Filatov, Stanislav'
_publ_section_title
;
 Borates--Crystal Structures of Prospective Nonlinear Optical Materials:
 High Anisotropy of the Thermal Expansion Caused by Anharmonic Atomic
 Vibrations
;
_journal_issue                   3
_journal_name_full               Crystals
_journal_page_first              93
_journal_paper_doi               10.3390/cryst7030093
_journal_volume                  7
_journal_year                    2017
_chemical_formula_sum            'B2 Ba O4'
_chemical_formula_weight         223
_space_group_IT_number           161
_symmetry_cell_setting           trigonal
_symmetry_Int_Tables_number      161
_symmetry_space_group_name_Hall  'R 3 -2"c'
_symmetry_space_group_name_H-M   'R 3 c :H'
_cell_angle_alpha                90
_cell_angle_beta                 90
_cell_angle_gamma                120
_cell_formula_units_Z            18
_cell_length_a                   12.5761(3)
_cell_length_b                   12.5761(3)
_cell_length_c                   12.6453(9)
_cell_measurement_temperature    98
_cell_volume                     1732.02(14)
_diffrn_ambient_temperature      98
_diffrn_measured_fraction_theta_full 0.98
_diffrn_measured_fraction_theta_max 0.98
_diffrn_measurement_device       'four-circle diffractometer'
_diffrn_measurement_device_type  'IPDS Stoe'
_diffrn_measurement_method       '??integration method??'
_diffrn_radiation_monochromator  graphite
_diffrn_radiation_probe          x-ray
_diffrn_radiation_source         'X-ray tube'
_diffrn_radiation_type           'Mo K\a'
_diffrn_radiation_wavelength     0.71073
_diffrn_reflns_av_R_equivalents  0.0901
_diffrn_reflns_av_unetI/netI     0.0035
_diffrn_reflns_limit_h_max       17
_diffrn_reflns_limit_h_min       -17
_diffrn_reflns_limit_k_max       17
_diffrn_reflns_limit_k_min       -17
_diffrn_reflns_limit_l_max       17
_diffrn_reflns_limit_l_min       -17
_diffrn_reflns_number            5068
_diffrn_reflns_theta_full        29.15
_diffrn_reflns_theta_max         29.15
_diffrn_reflns_theta_min         3.24
_exptl_absorpt_coefficient_mu    10.178
_exptl_crystal_density_diffrn    3.8476
_exptl_crystal_F_000             1764
_refine_diff_density_max         1.03
_refine_diff_density_min         -1.27
_refine_ls_abs_structure_details
'  504 of Friedel pairs used in the refinement'
_refine_ls_extinction_coef       3700(300)
_refine_ls_extinction_method
'B-C type 1 Gaussian isotropic (Becker & Coppens, 1974)'
_refine_ls_goodness_of_fit_gt    4.00
_refine_ls_goodness_of_fit_ref   4.00
_refine_ls_number_constraints    1
_refine_ls_number_parameters     65
_refine_ls_number_reflns         1021
_refine_ls_number_restraints     0
_refine_ls_R_factor_all          0.0342
_refine_ls_R_factor_gt           0.0341
_refine_ls_shift/su_max          0.0147
_refine_ls_shift/su_mean         0.0049
_refine_ls_structure_factor_coef F
_refine_ls_weighting_details     w=1/(\s^2^(F)+0.0001F^2^)
_refine_ls_weighting_scheme      sigma
_refine_ls_wR_factor_gt          0.0449
_refine_ls_wR_factor_ref         0.0449
_reflns_number_gt                1017
_reflns_number_total             1021
_reflns_threshold_expression     I>3\s(I)
_cod_data_source_file            b-BaB2O4_98K.cif
_cod_data_source_block           I
_cod_depositor_comments
;
The following automatic conversions were performed:

'_diffrn_radiation_probe' value 'X-ray' changed to 'x-ray' according
to the built-in table from CIF Core dictionary named 'cif_core.dic'
version 2.4.1 from 2010-06-29.

Automatic conversion script
Id: cif_fix_values 4624 2016-04-14 12:54:50Z antanas 

 Released structure into public domain as published material.

 Antanas Vaitkus,
 2021-05-18
;
_cod_original_sg_symbol_Hall     'R 3;-2"c'
_cod_original_sg_symbol_H-M      'R 3 c'
_cod_original_formula_sum        'B2 Ba1 O4'
_cod_database_code               3000105
loop_
_space_group_symop_id
_space_group_symop_operation_xyz
1 x,y,z
2 -y,x-y,z
3 -x+y,-x,z
4 -y,-x,z+1/2
5 -x+y,y,z+1/2
6 x,x-y,z+1/2
7 x+2/3,y+1/3,z+1/3
8 -y+2/3,x-y+1/3,z+1/3
9 -x+y+2/3,-x+1/3,z+1/3
10 -y+2/3,-x+1/3,z+5/6
11 -x+y+2/3,y+1/3,z+5/6
12 x+2/3,x-y+1/3,z+5/6
13 x+1/3,y+2/3,z+2/3
14 -y+1/3,x-y+2/3,z+2/3
15 -x+y+1/3,-x+2/3,z+2/3
16 -y+1/3,-x+2/3,z+1/6
17 -x+y+1/3,y+2/3,z+1/6
18 x+1/3,x-y+2/3,z+1/6
loop_
_atom_site_label
_atom_site_type_symbol
_atom_site_fract_x
_atom_site_fract_y
_atom_site_fract_z
_atom_site_adp_type
_atom_site_U_iso_or_equiv
_atom_site_site_symmetry_multiplicity
_atom_site_occupancy
_atom_site_calc_flag
_atom_site_refinement_flags
_atom_site_disorder_assembly
_atom_site_disorder_group
B1 B 0.0216(7) -0.1017(7) 0.2434(7) Uani 0.008(3) 18 1 d . . .
B2 B 0.0423(8) -0.0876(8) 0.5043(7) Uani 0.009(3) 18 1 d . . .
Ba1 Ba 0.36142(3) 0.35836(3) 0.37990(2) Uani 0.00635(19) 18 1 d . . .
O1 O -0.0410(5) 0.0834(5) 0.5013(4) Uani 0.0104(19) 18 1 d . . .
O2 O 0.1642(5) 0.2499(5) 0.5091(5) Uani 0.0099(19) 18 1 d . . .
O3 O 0.1186(5) 0.0211(5) 0.2444(5) Uani 0.011(2) 18 1 d . . .
O4 O 0.0451(5) 0.2382(5) 0.7349(5) Uani 0.0095(19) 18 1 d . . .
loop_
_atom_site_aniso_label
_atom_site_aniso_type_symbol
_atom_site_aniso_U_11
_atom_site_aniso_U_22
_atom_site_aniso_U_33
_atom_site_aniso_U_12
_atom_site_aniso_U_13
_atom_site_aniso_U_23
B1 B 0.003(4) 0.008(3) 0.012(4) 0.002(3) 0.003(3) 0.001(3)
B2 B 0.003(3) 0.007(3) 0.013(3) -0.001(3) -0.001(3) -0.003(3)
Ba1 Ba 0.0045(2) 0.0045(3) 0.0102(2) 0.00235(15) -0.00008(19) 0.0001(2)
O1 O 0.007(2) 0.004(2) 0.018(3) 0.0019(19) 0.001(2) 0.000(2)
O2 O 0.011(2) 0.006(2) 0.013(2) 0.0043(19) 0.003(2) 0.0022(19)
O3 O 0.005(2) 0.005(3) 0.024(3) 0.003(2) 0.000(2) -0.001(2)
O4 O 0.010(2) 0.004(2) 0.015(2) 0.004(2) 0.0026(19) 0.0012(19)
loop_
_atom_type_symbol
_atom_type_scat_dispersion_real
_atom_type_scat_dispersion_imag
_atom_type_scat_source
B 0.0013 0.0007 'International Tables Vol C tables 4.2.6.8 and 6.1.1.1'
Ba -0.3244 2.2819 'International Tables Vol C tables 4.2.6.8 and 6.1.1.1'
O 0.0106 0.0060 'International Tables Vol C tables 4.2.6.8 and 6.1.1.1'
loop_
_geom_bond_atom_site_label_1
_geom_bond_atom_site_label_2
_geom_bond_site_symmetry_1
_geom_bond_site_symmetry_2
_geom_bond_distance
O1 O1 . 2_555 2.393(12)
O1 O1 . 3_555 2.393(13)
O1 O2 . . 2.377(7)
O1 O2 . 2_555 2.418(7)
O3 O3 . 2_555 2.388(12)
O3 O3 . 3_555 2.388(9)
O3 O4 . 5_554 2.406(8)
O3 O4 . 6_554 2.374(10)
loop_
_refln_index_h
_refln_index_k
_refln_index_l
_refln_F_squared_calc
_refln_F_squared_meas
_refln_F_squared_sigma
_refln_observed_status
-1 2 0 68191.90 84497.60 266.73 o
-1 5 0 150045.00 155265.00 396.27 o
-4 5 0 156455.00 192068.00 517.99 o
0 6 0 156589.00 144249.00 333.89 o
-6 6 0 154783.00 186706.00 274.59 o
-2 7 0 70264.30 72575.20 150.09 o
-5 7 0 72879.60 76505.30 125.46 o
-4 8 0 80409.80 83188.90 136.42 o
-1 8 0 24197.80 20671.10 117.49 o
-7 8 0 22682.10 25644.10 80.81 o
-3 9 0 140268.00 136838.00 179.95 o
-6 9 0 139640.00 152467.00 156.64 o
0 9 0 65950.70 54886.30 204.55 o
-9 9 0 63842.50 68394.80 150.46 o
-5 10 0 175.83 544.93 78.94 o
-2 10 0 458.49 382.05 96.79 o
-8 10 0 287.23 957.52 63.67 o
-4 11 0 21570.30 19568.20 103.60 o
-7 11 0 20885.50 21690.70 93.19 o
-1 11 0 8261.39 7197.42 102.45 o
-10 11 0 7945.00 8524.80 71.70 o
-6 12 0 8255.18 8581.26 84.53 o
-3 12 0 4206.60 4665.43 102.14 o
-9 12 0 4829.84 4682.82 79.20 o
0 12 0 1242.86 1187.38 173.26 o
-12 12 0 1307.82 1791.33 112.12 o
-5 13 0 5634.27 5683.87 97.12 o
-8 13 0 5617.37 6039.04 84.34 o
-2 13 0 2289.35 2238.63 117.29 o
-11 13 0 2519.51 2448.07 81.60 o
-7 14 0 24329.60 23891.20 100.83 o
-4 14 0 15035.00 11455.70 110.50 o
-10 14 0 15327.90 15510.90 92.53 o
-1 14 0 2229.70 2567.14 124.92 o
-13 14 0 2684.49 2618.82 91.80 o
-6 15 0 2564.30 2358.64 96.90 o
-9 15 0 2433.75 2927.04 91.79 o
-3 15 0 6720.19 6369.17 112.46 o
-12 15 0 6890.32 6827.34 99.69 o
-8 16 0 22710.80 22391.70 131.53 o
-5 16 0 30799.70 28324.10 139.87 o
-11 16 0 31621.60 31418.10 116.61 o
-7 17 0 17963.20 16229.80 138.85 o
-10 17 0 17547.30 17475.50 125.96 o
-2 3 1 19523.40 19640.20 143.00 o
-1 3 -1 18972.70 19929.40 129.31 o
-1 4 1 60087.40 68561.60 170.85 o
-3 4 -1 62993.20 67799.90 168.94 o
-3 5 1 16410.10 14505.60 107.60 o
-2 5 -1 14275.40 16940.40 91.50 o
-5 6 1 83204.40 97266.20 134.22 o
-1 6 -1 85863.80 79611.30 186.27 o
-2 6 1 186584.00 161375.00 528.60 o
-4 7 1 44349.90 41831.10 126.70 o
-3 7 -1 41746.40 44924.20 104.79 o
-1 7 1 112908.00 115554.00 176.80 o
-6 7 -1 116609.00 127217.00 154.23 o
-6 8 1 13177.20 14061.50 72.32 o
-2 8 -1 13256.00 11970.30 105.91 o
-3 8 1 7104.97 7414.80 87.26 o
-5 8 -1 7512.20 6940.61 74.46 o
-8 9 1 19979.20 23078.00 80.37 o
-1 9 -1 21829.70 18514.90 114.26 o
-5 9 1 106324.00 109453.00 166.33 o
-4 9 -1 108264.00 106862.00 149.68 o
-2 9 1 195220.00 190467.00 211.53 o
-7 9 -1 189926.00 223063.00 195.58 o
-7 10 1 30908.00 28556.10 91.52 o
-3 10 -1 27518.70 28904.00 109.50 o
-4 10 1 130589.00 133829.00 176.24 o
-6 10 -1 134959.00 140177.00 148.33 o
-1 10 1 159534.00 144416.00 206.88 o
-9 10 -1 161182.00 180127.00 149.59 o
-9 11 1 22952.00 22213.80 85.48 o
-2 11 -1 22328.20 19694.70 121.68 o
-6 11 1 6598.23 5390.49 84.47 o
-5 11 -1 5888.56 6070.43 79.30 o
-3 11 1 3077.22 3381.55 91.88 o
-8 11 -1 3389.84 3122.00 71.48 o
-11 12 1 6453.88 7108.23 84.38 o
-1 12 -1 6845.09 6122.84 115.09 o
-8 12 1 32715.20 36376.00 93.83 o
-4 12 -1 33636.80 31872.20 114.75 o
-5 12 1 105768.00 100190.00 153.61 o
-7 12 -1 102554.00 110469.00 145.07 o
-2 12 1 144116.00 126601.00 201.34 o
-10 12 -1 142914.00 156969.00 142.51 o
-10 13 1 15039.00 16389.60 89.98 o
-3 13 -1 15650.10 11856.60 108.02 o
-7 13 1 80000.20 79638.90 131.51 o
-6 13 -1 78902.30 76716.00 144.83 o
-4 13 1 130435.00 114319.00 196.32 o
-9 13 -1 133231.00 138319.00 160.64 o
-1 13 1 136520.00 118396.00 201.34 o
-12 13 -1 135242.00 145906.00 146.07 o
-12 14 1 2628.54 2784.56 89.25 o
-2 14 -1 2807.09 2279.91 107.11 o
-9 14 1 2985.08 3002.24 81.62 o
-5 14 -1 3032.21 2703.88 107.14 o
-6 14 1 3472.69 3398.71 94.41 o
-8 14 -1 3557.66 3544.34 96.97 o
-3 14 1 919.08 914.52 112.09 o
-11 14 -1 858.25 1156.48 86.61 o
-14 15 1 5248.56 5543.52 112.35 o
-1 15 -1 5012.07 5103.66 130.21 o
-11 15 1 5450.25 5455.54 91.95 o
-4 15 -1 5394.68 5322.55 112.38 o
-8 15 1 44443.40 44129.20 112.38 o
-7 15 -1 43690.20 42249.90 138.46 o
-5 15 1 79454.00 74115.60 157.22 o
-10 15 -1 82058.20 82330.00 133.43 o
-2 15 1 110805.00 98010.10 205.50 o
-13 15 -1 112766.00 113733.00 151.58 o
-13 16 1 14426.00 15274.80 112.92 o
-3 16 -1 14607.50 13862.10 133.46 o
-10 16 1 15463.80 16108.90 105.30 o
-6 16 -1 15744.00 12278.80 125.87 o
-7 16 1 61893.40 59136.30 142.32 o
-9 16 -1 62116.60 59117.20 155.52 o
-4 16 1 78874.60 69019.40 172.73 o
-12 16 -1 76602.10 81491.40 143.33 o
-9 17 1 4193.96 3404.24 107.18 o
-8 17 -1 3493.76 3821.27 130.10 o
0 1 2 13147.30 12928.30 193.68 o
-1 1 -2 13186.80 14197.60 204.48 o
-2 2 2 25541.70 28060.70 220.52 o
0 2 -2 26252.70 29294.70 226.51 o
-1 3 2 1927.37 2413.26 104.92 o
-2 3 -2 1841.31 2612.27 122.81 o
-3 4 2 35682.60 37772.70 136.87 o
-1 4 -2 35322.00 37168.70 136.77 o
0 4 2 64269.60 67348.80 231.78 o
-4 4 -2 61587.20 71816.60 253.50 o
0 5 -2 198725.00 176847.00 501.53 o
-2 5 2 67236.30 67032.70 173.93 o
-3 5 -2 64767.60 74759.50 161.88 o
-4 6 2 19612.50 21552.40 99.55 o
-2 6 -2 20699.60 19568.30 99.70 o
-1 6 2 3934.46 4805.19 81.92 o
-5 6 -2 4443.11 4631.83 81.98 o
-6 7 2 47862.80 50103.70 104.95 o
-1 7 -2 46888.80 45135.00 145.15 o
-3 7 2 45197.40 46220.00 132.00 o
-4 7 -2 46705.70 47354.80 110.65 o
0 7 2 60486.30 60519.50 173.90 o
-7 7 -2 60263.40 65884.20 182.01 o
-8 8 2 245088.00 292835.00 302.14 o
0 8 -2 249179.00 216300.00 492.55 o
-5 8 2 138811.00 150532.00 182.24 o
-3 8 -2 137399.00 140836.00 176.12 o
-2 8 2 60492.00 58628.20 132.88 o
-6 8 -2 60469.20 64747.40 113.90 o
-7 9 2 56096.10 59484.10 107.21 o
-2 9 -2 55634.80 53134.00 133.96 o
-4 9 2 11017.40 11620.40 100.38 o
-5 9 -2 11503.70 11260.30 79.82 o
-1 9 2 6363.33 5963.50 89.62 o
-8 9 -2 6810.76 6370.61 76.85 o
-9 10 2 68522.80 68790.10 110.09 o
-1 10 -2 65141.00 61468.90 152.66 o
-6 10 2 45067.60 49448.20 113.81 o
-4 10 -2 47686.20 43573.10 127.33 o
-3 10 2 40482.20 39557.60 121.20 o
-7 10 -2 40838.30 42526.40 100.15 o
0 10 2 13763.30 11023.70 151.79 o
-10 10 -2 12147.00 15023.90 110.49 o
-11 11 2 226604.00 258642.00 276.29 o
0 11 -2 227200.00 205821.00 355.78 o
-8 11 2 192280.00 212905.00 181.14 o
-3 11 -2 192355.00 185996.00 210.38 o
-5 11 2 95907.80 91082.30 153.47 o
-6 11 -2 90841.30 98132.60 141.98 o
-2 11 2 29739.40 28915.40 114.52 o
-9 11 -2 31214.30 31262.80 93.80 o
-10 12 2 62265.70 63571.00 111.46 o
-2 12 -2 60458.10 59181.10 135.18 o
-7 12 2 20079.70 22067.90 87.83 o
-5 12 -2 21336.50 19722.10 106.00 o
-4 12 2 11274.50 11477.80 100.10 o
-8 12 -2 12273.20 11791.50 82.19 o
-1 12 2 1027.66 1159.21 112.10 o
-11 12 -2 1133.80 1510.90 76.44 o
-12 13 2 42464.20 45528.80 112.32 o
-1 13 -2 43466.50 39071.40 141.14 o
-9 13 2 45232.20 47784.40 107.49 o
-4 13 -2 46376.20 42267.60 128.56 o
-6 13 2 24937.70 24085.80 95.78 o
-7 13 -2 24517.30 24933.20 116.46 o
-3 13 2 2811.04 2491.95 114.78 o
-10 13 -2 2881.63 2782.85 79.07 o
0 13 2 7512.64 6738.71 184.13 o
-13 13 -2 7718.53 7987.69 120.21 o
-14 14 2 118944.00 119989.00 219.96 o
0 14 -2 115636.00 111745.00 254.83 o
-11 14 2 158800.00 172468.00 164.43 o
-3 14 -2 160846.00 147827.00 203.66 o
-8 14 2 109051.00 113237.00 144.11 o
-6 14 -2 109968.00 108182.00 171.39 o
-5 14 2 42381.80 37805.70 128.04 o
-9 14 -2 40999.30 43421.50 130.54 o
-2 14 2 1568.84 1839.91 129.97 o
-12 14 -2 1834.72 2079.78 81.56 o
-13 15 2 27897.30 28453.90 116.37 o
-2 15 -2 28067.40 26041.00 126.73 o
-10 15 2 31268.50 33557.50 111.49 o
-5 15 -2 32689.80 29762.70 134.93 o
-7 15 2 31089.50 29285.90 108.91 o
-8 15 -2 29683.40 30865.70 132.14 o
-4 15 2 13717.10 12592.80 136.01 o
-11 15 -2 14024.70 14081.10 110.37 o
-1 15 2 1327.67 993.67 150.32 o
-14 15 -2 1314.84 1470.11 96.82 o
-12 16 2 22507.40 23263.20 113.43 o
-4 16 -2 22774.70 20757.90 139.23 o
-9 16 2 10059.90 9586.80 102.42 o
-7 16 -2 9540.26 9279.36 127.99 o
-6 16 2 3199.49 3060.73 112.23 o
-10 16 -2 3205.56 3277.54 122.43 o
-3 16 2 5025.22 3954.69 148.08 o
-13 16 -2 4442.51 5045.78 114.85 o
-8 17 2 30752.60 31245.90 126.87 o
-9 17 -2 31944.20 29395.50 158.04 o
-1 5 -3 319330.00 269606.00 637.65 o
-3 6 3 10146.60 10895.20 103.30 o
-3 6 -3 10041.20 11014.90 100.70 o
-5 7 3 137922.00 143925.00 180.95 o
-2 7 -3 133580.00 147217.00 194.90 o
-2 7 3 122930.00 123030.00 201.52 o
-5 7 -3 124976.00 131310.00 190.24 o
-7 8 3 87334.30 96758.60 132.79 o
-1 8 -3 88927.30 86551.40 166.23 o
-4 8 3 66978.40 67922.90 139.24 o
-4 8 -3 65202.20 67634.90 136.27 o
-1 8 3 69905.90 68421.70 127.96 o
-7 8 -3 69613.70 75621.20 136.09 o
-6 9 3 2144.98 3099.63 76.53 o
-3 9 -3 2691.09 2138.95 81.68 o
-3 9 3 7242.42 6698.09 94.84 o
-6 9 -3 6826.77 7487.25 87.12 o
-8 10 3 41087.30 39272.40 94.72 o
-2 10 -3 37325.10 39974.60 123.30 o
-5 10 3 45929.20 47746.40 119.11 o
-5 10 -3 45952.50 47265.60 119.11 o
-2 10 3 42612.50 44393.20 126.45 o
-8 10 -3 47866.70 45449.30 103.16 o
-10 11 3 6238.59 6536.33 79.27 o
-1 11 -3 6409.39 5989.80 94.63 o
-7 11 3 11261.80 13292.90 82.18 o
-4 11 -3 13243.40 10625.20 102.88 o
-4 11 3 18987.80 17957.10 100.75 o
-7 11 -3 17631.90 19796.70 95.49 o
-1 11 3 10871.60 8725.63 110.32 o
-10 11 -3 10073.40 11138.70 82.05 o
-9 12 3 4933.20 6235.95 79.19 o
-3 12 -3 6039.10 4596.79 99.71 o
-6 12 3 15614.00 16078.00 97.83 o
-6 12 -3 15469.70 16274.60 97.82 o
-3 12 3 6551.28 5381.02 102.30 o
-9 12 -3 5737.97 6801.74 86.91 o
-11 13 3 4013.69 4395.17 86.78 o
-2 13 -3 4200.40 3872.38 99.55 o
-8 13 3 17560.70 16869.50 92.72 o
-5 13 -3 17192.70 16005.50 110.72 o
-5 13 3 20290.40 19747.90 108.36 o
-8 13 -3 20556.70 20053.30 105.80 o
-2 13 3 3849.23 3868.99 125.05 o
-11 13 -3 3600.09 3960.25 79.10 o
-13 14 3 3436.45 3632.66 91.84 o
-1 14 -3 3465.67 3364.86 112.25 o
-10 14 3 4060.96 4599.22 89.33 o
-4 14 -3 4145.86 4002.19 109.75 o
-7 14 3 6540.82 6764.17 92.03 o
-7 14 -3 6640.14 6767.15 109.93 o
-4 14 3 4110.58 4124.62 99.54 o
-10 14 -3 3863.60 4792.62 99.53 o
-1 14 3 6581.76 5515.06 140.56 o
-13 14 -3 6421.91 7027.35 97.11 o
-12 15 3 12869.80 12869.40 102.59 o
-3 15 -3 12512.70 12230.90 128.21 o
-9 15 3 29380.10 29330.90 113.96 o
-6 15 -3 28660.60 29034.00 139.80 o
-6 15 3 35374.10 35004.10 119.55 o
-9 15 -3 35787.90 35862.40 142.97 o
-3 15 3 5274.10 4548.04 125.13 o
-12 15 -3 5387.83 5345.12 99.60 o
-11 16 3 4793.59 4970.36 107.22 o
-5 16 -3 4959.97 4524.03 135.31 o
-8 16 3 1882.15 1638.82 107.05 o
-8 16 -3 1515.07 1878.00 129.96 o
-5 16 3 1746.04 1429.70 135.07 o
-11 16 -3 1444.63 1722.48 132.50 o
0 2 4 23634.70 19143.80 173.74 o
-2 2 -4 20359.10 24681.30 175.25 o
-2 3 4 3731.40 4631.02 100.00 o
-1 3 -4 3932.77 4142.84 97.48 o
-4 4 4 24839.10 25472.80 169.27 o
0 4 -4 26207.00 26047.50 151.07 o
-1 4 4 16341.30 16174.40 96.76 o
-3 4 -4 16231.70 15517.90 104.59 o
-3 5 4 81712.30 86986.70 165.58 o
-2 5 -4 81228.70 83855.20 174.03 o
0 5 4 178299.00 190096.00 480.24 o
-5 5 -4 184763.00 201125.00 350.01 o
-5 6 4 23008.50 23764.50 102.12 o
-1 6 -4 22838.90 23914.10 109.95 o
-2 6 4 14014.60 11865.60 80.35 o
-4 6 -4 11540.50 14370.90 95.60 o
-7 7 4 51930.80 51470.30 155.47 o
0 7 -4 49323.70 53268.40 197.85 o
-4 7 4 20248.50 20495.40 99.00 o
-3 7 -4 20175.70 20371.30 96.39 o
-1 7 4 33625.30 33748.60 105.53 o
-6 7 -4 33530.20 34818.90 118.71 o
-6 8 4 38591.80 39656.70 108.37 o
-2 8 -4 38223.00 39714.10 118.90 o
-3 8 4 141142.00 155580.00 186.35 o
-5 8 -4 143458.00 151174.00 195.48 o
0 8 4 187482.00 206348.00 312.30 o
-8 8 -4 185511.00 205754.00 308.86 o
-8 9 4 4820.22 4299.79 71.58 o
-1 9 -4 4098.38 4782.59 91.97 o
-5 9 4 17707.30 18363.10 95.74 o
-4 9 -4 17927.40 17960.40 111.28 o
-2 9 4 84414.10 84710.60 150.42 o
-7 9 -4 84923.60 89484.70 153.22 o
-10 10 4 12142.20 13276.50 115.58 o
0 10 -4 12868.30 11589.90 138.77 o
-7 10 4 60259.80 65062.60 125.52 o
-3 10 -4 61859.30 60305.90 144.39 o
-4 10 4 66035.80 69188.30 128.89 o
-6 10 -4 66482.90 71369.50 128.93 o
-1 10 4 68073.20 65109.70 136.55 o
-9 10 -4 67494.80 72980.70 147.20 o
-9 11 4 18212.00 19385.70 87.69 o
-2 11 -4 18557.40 18128.90 108.36 o
-6 11 4 86691.20 90700.40 141.10 o
-5 11 -4 87353.90 90751.20 143.88 o
-3 11 4 164808.00 162068.00 194.04 o
-8 11 -4 162022.00 178327.00 182.30 o
0 11 4 211462.00 182340.00 356.75 o
-11 11 -4 209415.00 227671.00 315.78 o
-11 12 4 333.00 450.73 84.04 o
-1 12 -4 185.85 649.30 101.85 o
-8 12 4 9321.34 8858.14 84.56 o
-4 12 -4 8711.50 9471.71 105.01 o
-5 12 4 24284.00 25438.80 126.87 o
-7 12 -4 24251.20 25764.40 116.51 o
-2 12 4 41475.80 39517.90 120.31 o
-10 12 -4 43693.40 43552.50 120.49 o
-13 13 4 4954.70 4670.11 130.22 o
0 13 -4 4387.11 5150.99 155.70 o
-10 13 4 5445.73 4940.81 89.41 o
-3 13 -4 4831.82 5281.10 109.81 o
-7 13 4 16836.30 16954.80 100.39 o
-6 13 -4 16998.70 16730.00 131.29 o
-4 13 4 30914.80 30519.70 127.22 o
-9 13 -4 30722.90 32405.90 124.61 o
-1 13 4 36215.50 31500.20 140.46 o
-12 13 -4 35718.20 36530.60 106.62 o
-12 14 4 5557.38 5478.80 94.51 o
-2 14 -4 5271.19 5416.60 120.03 o
-9 14 4 41824.30 43443.30 107.04 o
-5 14 -4 41994.60 42267.50 148.82 o
-6 14 4 106375.00 92463.80 157.22 o
-8 14 -4 106905.00 109300.00 195.23 o
-3 14 4 152646.00 146204.00 221.83 o
-11 14 -4 153485.00 162477.00 180.31 o
0 14 4 154127.00 143439.00 312.12 o
-14 14 -4 157553.00 162228.00 249.02 o
-1 15 -4 1447.27 807.72 211.49 o
-11 15 4 11618.60 11494.70 99.95 o
-4 15 -4 11743.20 10716.30 130.72 o
-8 15 4 15965.40 16926.90 100.22 o
-7 15 -4 16535.50 16354.10 128.53 o
-5 15 4 29036.40 27830.60 134.61 o
-10 15 -4 28710.10 29629.50 121.64 o
-2 15 4 25411.10 22210.70 149.76 o
-13 15 -4 24390.90 25811.10 118.71 o
-10 16 4 3912.11 3814.60 107.17 o
-6 16 -4 3651.45 4025.79 173.48 o
-7 16 4 6593.69 6720.79 102.22 o
-9 16 -4 6344.82 6837.38 122.64 o
-4 16 4 26615.80 24880.50 165.34 o
-12 16 -4 26944.20 26683.20 124.02 o
-1 3 5 36819.20 34799.80 129.59 o
-2 3 -5 37830.40 36793.20 129.79 o
-3 4 5 42635.20 40567.80 127.13 o
-1 4 -5 43581.10 41116.50 138.13 o
-2 5 5 19131.60 19554.40 96.60 o
-3 5 -5 18889.50 18927.10 107.01 o
-4 6 5 82107.80 78256.10 153.63 o
-2 6 -5 77938.80 81574.10 169.62 o
-1 6 5 34331.40 36738.40 124.35 o
-5 6 -5 36589.30 33837.80 111.40 o
-6 7 5 123698.00 127614.00 166.14 o
-1 7 -5 122750.00 129386.00 191.75 o
-3 7 5 39775.90 43022.50 108.83 o
-4 7 -5 40494.30 40188.00 124.85 o
-5 8 5 5666.61 6100.06 89.59 o
-3 8 -5 5788.66 5701.40 79.36 o
-2 8 5 16597.20 16009.70 93.08 o
-6 8 -5 15180.00 16902.90 103.29 o
-7 9 5 157511.00 166060.00 178.70 o
-2 9 -5 154350.00 166469.00 195.54 o
-4 9 5 103151.00 88268.40 149.88 o
-5 9 -5 103627.00 109247.00 155.50 o
-1 9 5 18277.00 18600.00 95.60 o
-8 9 -5 18999.30 18367.70 100.82 o
-9 10 5 119817.00 135914.00 144.01 o
-1 10 -5 125427.00 124697.00 189.02 o
-6 10 5 119757.00 130210.00 164.49 o
-4 10 -5 123568.00 126258.00 164.94 o
-3 10 5 31120.80 28599.10 112.14 o
-7 10 -5 28291.10 32141.60 104.09 o
-8 11 5 5545.38 5707.75 86.91 o
-3 11 -5 5781.77 5274.11 115.04 o
-5 11 5 1417.35 1154.53 86.65 o
-6 11 -5 1330.27 1358.34 84.10 o
-2 11 5 3495.85 3111.12 102.09 o
-9 11 -5 3159.39 3674.30 84.20 o
-10 12 5 133282.00 138291.00 149.20 o
-2 12 -5 130907.00 135169.00 204.17 o
-7 12 5 98919.50 100024.00 149.40 o
-5 12 -5 97282.90 101123.00 151.96 o
-4 12 5 42641.90 45107.60 123.09 o
-8 12 -5 45892.00 43772.70 115.47 o
-1 12 5 6314.27 5482.79 104.80 o
-11 12 -5 6068.91 7000.03 89.45 o
-12 13 5 120468.00 128670.00 155.34 o
-1 13 -5 120822.00 121359.00 196.26 o
-9 13 5 101402.00 104346.00 138.05 o
-4 13 -5 99475.70 102651.00 173.04 o
-6 13 5 52683.80 51883.70 128.94 o
-7 13 -5 53256.40 47777.10 123.72 o
-3 13 5 13845.30 12589.60 112.98 o
-10 13 -5 12973.50 13753.20 100.09 o
-11 14 5 75.37 445.57 91.66 o
-3 14 -5 94.17 246.97 127.31 <
-8 14 5 2617.29 3047.26 89.25 o
-6 14 -5 2814.28 2509.51 119.86 o
-5 14 5 4470.93 4222.34 107.22 o
-9 14 -5 4396.74 4513.16 104.66 o
-2 14 5 4351.05 3660.08 145.48 o
-12 14 -5 4021.72 4287.15 99.52 o
-13 15 5 108641.00 114022.00 156.45 o
-2 15 -5 109779.00 105770.00 218.62 o
-10 15 5 63741.10 64372.80 131.91 o
-5 15 -5 62568.40 63801.70 166.10 o
-7 15 5 31566.60 31566.50 127.02 o
-8 15 -5 31910.80 32482.70 142.60 o
-4 15 5 4053.22 3830.31 114.83 o
-11 15 -5 3661.13 4441.76 107.15 o
-9 16 5 69805.70 68543.00 142.80 o
-7 16 -5 69147.80 68817.80 174.47 o
-6 16 5 14722.60 15336.70 128.34 o
-10 16 -5 15752.10 15674.10 148.96 o
-1 2 6 113569.00 100118.00 176.12 o
-1 2 -6 113350.00 84514.30 173.09 o
-2 4 6 93125.80 89586.70 165.70 o
-2 4 -6 91708.20 94155.20 168.28 o
-4 5 6 75074.60 65773.70 146.76 o
-1 5 -6 75305.20 75558.50 146.79 o
-1 5 6 55570.10 59423.90 130.12 o
-4 5 -6 57302.70 55256.20 141.24 o
-6 6 6 138673.00 134294.00 269.63 o
0 6 -6 133874.00 145301.00 277.15 o
-3 6 6 201623.00 207836.00 267.23 o
-3 6 -6 206061.00 203268.00 268.30 o
0 6 6 184239.00 195452.00 307.57 o
-6 6 -6 183093.00 196787.00 307.27 o
-5 7 6 29027.30 28525.60 102.10 o
-2 7 -6 28383.40 28932.10 109.89 o
-2 7 6 38020.70 40560.30 113.53 o
-5 7 -6 38744.60 38048.80 116.25 o
-7 8 6 24895.40 26665.00 101.40 o
-1 8 -6 25966.50 25036.30 114.50 o
-4 8 6 50333.40 51313.20 122.46 o
-4 8 -6 49922.10 50488.50 133.06 o
-1 8 6 23196.70 24015.40 103.85 o
-7 8 -6 23006.90 23845.50 106.43 o
-9 9 6 36942.10 36458.10 136.02 o
0 9 -6 35345.10 44379.70 195.95 o
-6 9 6 79203.50 83602.60 138.26 o
-3 9 -6 80710.50 81886.20 143.85 o
-3 9 6 71266.20 76899.30 129.33 o
-6 9 -6 71856.50 73133.50 140.17 o
0 9 6 52629.20 48495.90 174.59 o
-9 9 -6 49481.30 53932.50 179.48 o
-8 10 6 801.84 1115.80 81.52 o
-2 10 -6 1061.28 945.29 99.37 o
-5 10 6 3678.68 3707.18 86.81 o
-5 10 -6 3292.14 4124.68 84.23 o
-2 10 6 1133.63 1643.52 84.09 o
-8 10 -6 1466.06 1745.87 91.75 o
-10 11 6 5592.11 6664.29 79.22 o
-1 11 -6 6242.60 5700.80 117.60 o
-7 11 6 33571.90 32970.80 106.85 o
-4 11 -6 32485.40 34292.50 117.18 o
-4 11 6 20642.30 18501.30 100.73 o
-7 11 -6 18701.10 21380.90 103.18 o
-1 11 6 4901.44 5389.30 102.17 o
-10 11 -6 5448.37 5033.52 102.20 o
-12 12 6 3407.35 3944.11 117.35 o
0 12 -6 3620.82 3383.28 176.05 o
-9 12 6 9014.07 8742.37 87.07 o
-3 12 -6 8635.59 8873.38 120.33 o
-6 12 6 7261.11 7961.24 99.77 o
-6 12 -6 7924.40 7544.99 92.14 o
-3 12 6 3877.46 3555.40 99.54 o
-9 12 -6 3487.44 4029.13 91.86 o
0 12 6 486.92 891.35 183.36 o
-12 12 -6 773.73 776.88 160.47 o
-11 13 6 3880.43 3991.10 94.42 o
-2 13 -6 3644.14 4166.59 142.88 o
-8 13 6 4355.95 5210.40 94.46 o
-5 13 -6 4776.96 4397.18 112.36 o
-5 13 6 7589.72 8400.39 99.76 o
-8 13 -6 8012.57 8261.86 94.67 o
-2 13 6 2858.19 2838.49 117.31 o
-11 13 -6 2671.12 3077.88 96.90 o
-13 14 6 231.64 659.49 101.85 o
-1 14 -6 154.03 292.81 142.59 <
-10 14 6 9068.65 8865.91 97.26 o
-4 14 -6 8542.98 9313.54 133.05 o
-7 14 6 14381.10 15948.00 110.41 o
-7 14 -6 15565.00 14774.60 113.06 o
-4 14 6 12450.40 12283.70 120.53 o
-10 14 -6 12426.20 12634.90 107.71 o
-1 14 6 1715.84 2008.16 160.55 o
-13 14 -6 1897.99 2095.02 107.04 o
-12 15 6 5068.30 5770.13 104.68 o
-3 15 -6 5504.16 5309.29 148.12 o
-9 15 6 1466.43 1651.17 99.38 o
-6 15 -6 1466.77 1574.73 132.50 o
-6 15 6 837.35 1263.41 112.08 o
-9 15 -6 809.46 1102.92 106.98 o
-3 15 6 2488.87 2934.48 132.57 o
-12 15 -6 2923.17 2840.83 119.86 o
-8 16 6 31410.00 29343.60 129.51 o
-8 16 -6 29681.50 33148.60 157.85 o
-2 3 7 8517.56 7190.44 87.47 o
-1 3 -7 8132.59 7788.78 87.43 o
-1 4 7 31318.80 30728.20 110.76 o
-3 4 -7 33414.60 31864.60 116.30 o
-3 5 7 11142.20 9455.39 90.17 o
-2 5 -7 9872.46 10474.40 95.20 o
-5 6 7 47572.90 38665.60 119.81 o
-1 6 -7 50872.70 47627.40 149.54 o
-2 6 7 129963.00 133946.00 169.46 o
-4 6 -7 127091.00 129765.00 186.23 o
-4 7 7 34028.30 34875.20 102.39 o
-3 7 -7 33594.90 33791.00 125.97 o
-1 7 7 84054.90 86759.70 150.34 o
-6 7 -7 83986.00 85336.30 153.07 o
-6 8 7 12011.20 11989.80 89.99 o
-2 8 -7 11530.70 12476.00 97.67 o
-3 8 7 2762.49 3059.74 81.66 o
-5 8 -7 3009.63 2779.61 91.89 o
-8 9 7 22440.40 24503.60 100.93 o
-1 9 -7 23921.70 22739.60 132.13 o
-5 9 7 61873.30 62726.90 128.12 o
-4 9 -7 61539.10 62834.10 128.09 o
-2 9 7 134716.00 140739.00 173.91 o
-7 9 -7 130940.00 142204.00 181.85 o
-7 10 7 33860.50 30022.00 106.91 o
-3 10 -7 30687.80 35367.50 114.48 o
-4 10 7 61707.50 66403.90 138.31 o
-6 10 -7 64496.60 64653.10 127.92 o
-1 10 7 122177.00 128311.00 179.16 o
-9 10 -7 127691.00 128858.00 177.01 o
-9 11 7 12909.90 13165.70 92.43 o
-2 11 -7 12646.50 13135.20 128.35 o
-6 11 7 6071.71 5744.50 92.03 o
-5 11 -7 5628.66 6026.46 94.56 o
-3 11 7 2507.00 2672.65 96.91 o
-8 11 -7 2587.64 3088.50 99.46 o
-11 12 7 5644.24 6248.56 91.97 o
-1 12 -7 5641.43 5487.28 148.17 o
-8 12 7 18683.60 21152.40 105.62 o
-4 12 -7 20395.80 19697.40 110.89 o
-5 12 7 85551.30 85432.30 150.33 o
-7 12 -7 83416.70 78301.50 142.09 o
-2 12 7 119925.00 117843.00 196.65 o
-10 12 -7 118139.00 126164.00 160.98 o
-10 13 7 11501.10 11737.40 94.84 o
-3 13 -7 11582.60 11827.60 135.86 o
-7 13 7 60029.30 59679.70 137.20 o
-6 13 -7 60321.60 60885.20 137.22 o
-4 13 7 104430.00 104099.00 170.34 o
-9 13 -7 104588.00 109438.00 162.25 o
-1 13 7 103835.00 98918.80 215.65 o
-12 13 -7 103323.00 108470.00 161.69 o
-12 14 7 3461.69 3369.77 99.49 o
-2 14 -7 3239.78 3499.43 153.04 o
-9 14 7 2044.26 2034.10 96.86 o
-5 14 -7 2005.83 1888.76 117.25 o
-6 14 7 2013.62 2393.48 107.06 o
-8 14 -7 2188.68 2166.84 101.97 o
-3 14 7 847.78 1189.55 124.81 o
-11 14 -7 871.91 1240.51 112.08 o
-11 15 7 5439.03 5763.62 102.15 o
-4 15 -7 5302.56 5551.25 155.76 o
-8 15 7 31087.50 31250.20 129.52 o
-7 15 -7 31333.40 31168.90 155.44 o
-5 15 7 73984.90 72437.10 169.62 o
-10 15 -7 75009.00 76475.00 153.80 o
0 1 8 20726.30 18913.10 135.56 o
-1 1 -8 19971.50 20678.60 138.05 o
-2 2 8 31862.80 28187.80 147.65 o
0 2 -8 30917.80 30189.80 150.13 o
-1 3 8 611.22 794.87 78.98 o
-2 3 -8 679.58 1095.58 78.98 o
-3 4 8 27189.20 26388.80 107.28 o
-1 4 -8 27576.60 25768.10 109.94 o
0 4 8 38911.90 36199.20 169.24 o
-4 4 -8 39016.30 28879.70 163.97 o
-5 5 8 60298.30 67188.40 206.94 o
0 5 -8 64331.40 59307.00 199.58 o
-2 5 8 30869.60 27377.00 138.97 o
-3 5 -8 29103.10 30595.80 130.88 o
-4 6 8 27968.80 27469.60 107.02 o
-2 6 -8 27722.90 28121.30 109.60 o
-1 6 8 663.20 889.07 86.61 o
-5 6 -8 427.80 659.66 89.14 o
-6 7 8 41907.70 40455.20 118.48 o
-1 7 -8 42659.30 43387.60 121.19 o
-3 7 8 48015.00 43429.90 108.63 o
-4 7 -8 49493.00 47034.00 129.98 o
0 7 8 38965.60 35996.70 202.05 o
-7 7 -8 37929.10 39623.30 175.67 o
-8 8 8 182357.00 180960.00 279.53 o
0 8 -8 183176.00 193965.00 299.86 o
-5 8 8 87646.30 90855.10 141.51 o
-3 8 -8 88555.90 87220.50 163.38 o
-2 8 8 42837.60 37403.90 110.48 o
-6 8 -8 43038.00 43578.70 123.65 o
-7 9 8 16897.70 13253.10 95.35 o
-2 9 -8 15636.00 18112.40 108.13 o
-4 9 8 5829.19 5691.80 86.94 o
-5 9 -8 5584.69 5437.69 99.70 o
-1 9 8 5506.69 5507.77 102.23 o
-8 9 -8 5261.93 5887.58 99.66 o
-9 10 8 39216.30 38867.00 114.89 o
-1 10 -8 37189.70 39289.00 166.90 o
-6 10 8 19963.30 19802.40 100.66 o
-4 10 -8 19762.10 20370.00 108.39 o
-3 10 8 9849.31 9765.51 94.84 o
-7 10 -8 9881.65 9350.49 102.53 o
0 10 8 10718.00 10748.00 158.93 o
-10 10 -8 10880.40 10795.30 158.94 o
-11 11 8 165031.00 171434.00 237.54 o
0 11 -8 162334.00 166450.00 379.53 o
-8 11 8 151395.00 128763.00 170.22 o
-3 11 -8 150891.00 160941.00 200.85 o
-5 11 8 69025.80 70285.80 141.00 o
-6 11 -8 67962.70 72887.50 138.25 o
-2 11 8 17439.90 18421.60 110.68 o
-9 11 -8 18353.00 17860.30 110.74 o
-10 12 8 39480.40 42539.10 112.05 o
-2 12 -8 40749.20 40938.00 177.32 o
-7 12 8 21351.90 21869.90 108.34 o
-5 12 -8 21552.50 22522.70 113.52 o
-4 12 8 10581.60 10652.40 112.75 o
-8 12 -8 10846.60 10777.20 102.52 o
-1 12 8 2060.26 1746.10 122.36 o
-11 12 -8 2168.46 2215.27 107.07 o
-12 13 8 35043.00 36710.70 119.42 o
-1 13 -8 35551.40 33945.00 199.95 o
-9 13 8 35343.40 37122.40 124.73 o
-4 13 -8 36290.50 37355.60 153.40 o
-6 13 8 19183.60 18740.10 118.45 o
-7 13 -8 18992.50 17020.80 110.71 o
-3 13 8 4670.63 4240.32 127.64 o
-10 13 -8 4288.77 4977.00 104.64 o
0 13 8 4508.21 4063.35 265.45 o
-13 13 -8 4250.54 4693.11 191.40 o
-11 14 8 102628.00 108040.00 153.35 o
-3 14 -8 104245.00 105246.00 223.48 o
-8 14 8 69237.90 69989.60 153.46 o
-6 14 -8 69949.70 71657.60 156.16 o
-5 14 8 27910.80 25999.40 134.48 o
-9 14 -8 26892.00 28915.80 121.48 o
-2 14 8 676.56 509.39 147.72 o
-12 14 -8 569.43 1008.53 117.15 o
-10 15 8 24532.10 23662.00 296.74 o
-5 15 -8 25461.90 23472.50 299.47 o
-7 15 8 25075.50 24744.70 139.39 o
-8 15 -8 25324.70 26191.20 131.67 o
-1 2 9 226801.00 209798.00 231.02 o
-1 2 -9 227837.00 168159.00 234.34 o
-2 4 9 187881.00 179038.00 206.17 o
-2 4 -9 187524.00 182746.00 227.02 o
-4 5 9 131791.00 131031.00 178.67 o
-1 5 -9 130776.00 133439.00 189.87 o
-1 5 9 126616.00 122701.00 175.13 o
-4 5 -9 127234.00 125536.00 186.52 o
-3 6 9 1048.02 1133.95 81.54 o
-3 6 -9 907.84 1383.51 81.53 o
-5 7 9 94559.10 95728.80 158.47 o
-2 7 -9 95282.90 96817.40 155.82 o
-2 7 9 100525.00 101965.00 153.67 o
-5 7 -9 98635.00 98897.40 158.94 o
-7 8 9 48982.50 41342.20 126.45 o
-1 8 -9 49205.10 51627.00 131.74 o
-4 8 9 55073.00 55744.00 119.24 o
-4 8 -9 53951.30 54105.80 135.03 o
-1 8 9 30536.90 31328.70 124.86 o
-7 8 -9 31290.40 30985.90 114.51 o
-6 9 9 1920.08 1863.59 86.68 o
-3 9 -9 1531.53 1977.78 94.30 o
-3 9 9 4334.38 5091.94 89.38 o
-6 9 -9 4897.60 4399.07 97.08 o
-8 10 9 15174.10 16990.30 100.26 o
-2 10 -9 16972.30 15341.90 118.39 o
-5 10 9 35561.60 36413.50 119.87 o
-5 10 -9 35941.20 36948.80 114.68 o
-2 10 9 29857.30 29867.80 119.36 o
-8 10 -9 29588.10 30838.20 121.93 o
-10 11 9 5570.67 5617.25 91.96 o
-1 11 -9 4939.38 6133.50 158.32 o
-7 11 9 3995.60 3570.73 94.44 o
-4 11 -9 3457.31 4235.47 102.06 o
-4 11 9 6534.24 8203.44 99.70 o
-7 11 -9 7535.85 6512.61 107.43 o
-1 11 9 5147.23 5194.45 114.92 o
-10 11 -9 5078.53 5472.60 112.36 o
-9 12 9 6075.08 6390.32 104.76 o
-3 12 -9 5953.48 6635.13 127.75 o
-6 12 9 11743.50 11509.60 110.25 o
-6 12 -9 11423.90 12122.60 112.79 o
-3 12 9 5017.23 5487.51 117.46 o
-9 12 -9 5861.08 4946.06 114.96 o
-11 13 9 3052.13 2693.17 99.46 o
-2 13 -9 2995.84 3093.47 160.67 o
-8 13 9 5713.37 5821.41 112.39 o
-5 13 -9 5665.75 6229.94 114.94 o
-5 13 9 10632.70 10151.50 115.27 o
-8 13 -9 10407.90 11100.50 117.82 o
-2 13 9 2741.04 2340.81 155.54 o
-11 13 -9 2548.81 2666.91 112.18 o
-10 14 9 4409.61 4637.38 109.75 o
-4 14 -9 4264.19 4807.99 153.12 o
-7 14 9 2568.09 3016.24 119.83 o
-7 14 -9 2720.20 2598.32 117.29 o
-4 14 9 3149.47 2892.20 130.07 o
-10 14 -9 3083.93 3493.97 119.87 o
-1 1 10 11103.70 10628.10 118.29 o
0 1 -10 11488.70 7688.96 120.90 o
0 2 10 18431.60 15307.50 134.55 o
-2 2 -10 17928.80 17163.00 137.08 o
-2 3 10 411.48 669.83 78.95 o
-1 3 -10 472.19 674.96 78.96 o
-4 4 10 25113.60 23872.40 145.50 o
0 4 -10 24416.70 24783.60 150.61 o
-1 4 10 11914.00 10624.40 95.14 o
-3 4 -10 12089.90 11801.10 92.58 o
-3 5 10 31676.80 30390.90 114.87 o
-2 5 -10 30681.20 32347.20 117.39 o
0 5 10 52306.70 51131.40 182.79 o
-5 5 -10 54052.30 53046.60 185.68 o
-5 6 10 2728.95 3012.98 86.74 o
-1 6 -10 2933.54 2768.49 99.51 o
-2 6 10 7913.10 7051.45 94.77 o
-4 6 -10 7588.37 7938.29 97.31 o
-7 7 10 29036.70 25223.30 168.81 o
0 7 -10 26957.40 30465.60 184.14 o
-4 7 10 20118.00 20108.90 108.50 o
-3 7 -10 20695.90 21432.80 105.96 o
-1 7 10 24975.30 24566.50 114.01 o
-6 7 -10 25060.30 24715.60 114.02 o
-6 8 10 21083.80 19576.80 111.06 o
-2 8 -10 20781.00 21907.10 105.87 o
-3 8 10 88580.50 92608.10 145.88 o
-5 8 -10 89483.30 89675.30 159.48 o
0 8 10 109964.00 111150.00 242.79 o
-8 8 -10 110784.00 110334.00 237.45 o
-8 9 10 387.97 353.98 104.41 o
-1 9 -10 306.61 672.27 117.14 o
-5 9 10 7419.03 7900.60 99.78 o
-4 9 -10 7945.21 7283.97 104.93 o
-2 9 10 32457.80 32745.40 124.77 o
-7 9 -10 32433.70 33207.60 124.77 o
-10 10 10 10947.20 10414.00 140.94 o
0 10 -10 10465.50 9985.84 202.38 o
-7 10 10 20086.70 21703.40 108.27 o
-3 10 -10 20970.50 20975.00 118.65 o
-4 10 10 29532.00 32647.00 114.11 o
-6 10 -10 31148.50 30789.70 122.01 o
-1 10 10 43822.80 41115.10 130.66 o
-9 10 -10 41263.40 45439.90 133.08 o
-9 11 10 7798.24 7322.66 107.42 o
-2 11 -10 8336.94 8289.52 127.93 o
-6 11 10 73128.40 58295.30 143.53 o
-5 11 -10 71482.80 76409.30 151.36 o
-3 11 10 110056.00 108496.00 173.54 o
-8 11 -10 109412.00 114364.00 184.32 o
0 11 10 123535.00 125982.00 264.14 o
-11 11 -10 122532.00 130061.00 280.33 o
-11 12 10 421.86 646.83 101.86 o
-1 12 -10 330.92 1176.46 165.52 o
-8 12 10 5114.65 5467.11 102.14 o
-4 12 -10 5437.87 5401.72 112.38 o
-5 12 10 19949.70 19965.50 126.20 o
-7 12 -10 21031.00 17099.30 118.55 o
-2 12 10 25316.10 22909.50 170.45 o
-10 12 -10 24774.00 26258.90 136.83 o
-10 13 10 5142.86 4756.76 102.13 o
-3 13 -10 5193.54 5300.76 158.31 o
-7 13 10 11584.50 10993.80 120.44 o
-6 13 -10 11513.10 11979.90 120.44 o
-4 13 10 17932.40 17350.40 146.58 o
-9 13 -10 17846.90 19046.70 118.29 o
-6 14 10 57590.50 53551.90 330.92 o
-1 3 11 20245.10 18772.90 95.70 o
-2 3 -11 20958.70 20204.00 98.34 o
-3 4 11 13815.50 13669.10 92.62 o
-1 4 -11 14656.30 13757.50 100.40 o
-2 5 11 9876.22 8993.91 97.45 o
-3 5 -11 9392.35 10649.40 99.98 o
-4 6 11 48834.40 43438.40 123.79 o
-2 6 -11 45582.10 51260.40 157.68 o
-1 6 11 14038.10 14176.40 105.41 o
-5 6 -11 15064.40 14515.80 108.06 o
-6 7 11 65903.60 62327.20 146.16 o
-1 7 -11 67038.10 67363.80 143.61 o
-3 7 11 20692.20 19986.70 111.02 o
-4 7 -11 20150.90 21027.40 113.56 o
-5 8 11 471.10 812.42 96.78 o
-3 8 -11 547.72 700.40 106.97 o
-2 8 11 7962.69 7569.83 102.36 o
-6 8 -11 7682.32 8080.19 102.35 o
-7 9 11 83866.10 83158.90 147.24 o
-2 9 -11 81042.20 89036.50 173.73 o
-4 9 11 49420.90 51788.90 126.00 o
-5 9 -11 50420.80 50859.00 139.20 o
-1 9 11 13240.80 13736.00 115.49 o
-8 9 -11 14279.30 13159.00 120.70 o
-9 10 11 74292.60 78008.80 143.42 o
-1 10 -11 77072.50 78636.60 252.70 o
-6 10 11 53158.70 55541.70 139.26 o
-4 10 -11 56057.70 55227.20 139.49 o
-3 10 11 27247.40 25024.20 124.20 o
-7 10 -11 25393.70 27731.60 124.07 o
-8 11 11 5647.26 6444.52 107.28 o
-3 11 -11 5972.16 6218.35 122.63 o
-5 11 11 3471.09 3122.62 109.70 o
-6 11 -11 3068.18 3532.52 104.57 o
-2 11 11 2726.48 1787.52 135.15 o
-9 11 -11 2002.04 3048.49 124.90 o
-10 12 11 79712.60 81856.80 146.19 o
-2 12 -11 78958.90 82371.80 278.98 o
-7 12 11 63658.60 61186.80 147.69 o
-5 12 -11 62123.70 65439.30 160.75 o
-4 12 11 22528.50 23254.00 139.23 o
-8 12 -11 24370.30 23597.90 121.31 o
-1 12 11 2659.89 2784.30 175.93 o
-9 13 11 58351.10 56423.20 246.98 o
-6 13 11 29162.60 28579.30 139.70 o
-7 13 -11 28657.70 25129.10 137.08 o
0 0 12 122695.00 100524.00 358.33 o
0 0 -12 113162.00 120644.00 405.70 o
-1 2 12 70109.70 63632.40 128.49 o
-1 2 -12 71609.50 62661.70 123.26 o
-3 3 12 174191.00 166467.00 266.01 o
0 3 -12 176945.00 180092.00 277.92 o
0 3 12 182617.00 164607.00 267.41 o
-3 3 -12 180301.00 143290.00 264.15 o
-2 4 12 34001.40 30235.60 109.49 o
-2 4 -12 33060.50 35056.70 117.24 o
-4 5 12 20841.00 21436.10 111.03 o
-1 5 -12 21347.90 21588.00 108.48 o
-1 5 12 26968.80 22755.40 114.07 o
-4 5 -12 25868.60 25878.70 113.99 o
-6 6 12 91666.90 85584.50 231.81 o
0 6 -12 91686.50 96383.80 250.68 o
-3 6 12 114024.00 112559.00 169.73 o
-3 6 -12 116682.00 120586.00 172.75 o
0 6 12 100306.00 102109.00 276.37 o
-6 6 -12 101688.00 104642.00 238.63 o
-5 7 12 7596.02 7237.54 104.89 o
-2 7 -12 7349.09 8067.73 109.99 o
-2 7 12 14348.70 13851.10 105.34 o
-5 7 -12 13806.40 14776.20 118.15 o
-7 8 12 19428.50 18681.20 123.65 o
-1 8 -12 19427.20 20252.50 131.38 o
-4 8 12 18933.80 19126.40 108.19 o
-4 8 -12 18783.90 19263.70 128.79 o
-1 8 12 15287.10 15065.60 143.90 o
-7 8 -12 15737.80 15725.10 118.23 o
-9 9 12 17171.50 14635.30 182.56 o
0 9 -12 15588.30 20006.50 187.53 o
-6 9 12 28135.70 27133.20 124.26 o
-3 9 -12 27304.10 29886.00 131.96 o
-3 9 12 25392.10 23765.70 121.48 o
-6 9 -12 24565.40 25492.80 131.75 o
0 9 12 16141.00 15336.00 169.60 o
-9 9 -12 15811.10 18518.90 187.55 o
-8 10 12 3288.87 3770.08 107.13 o
-2 10 -12 3499.73 3540.94 137.76 o
-5 10 12 1769.23 2214.75 112.14 o
-5 10 -12 1774.78 2196.91 119.79 o
-2 10 12 3422.10 3757.61 147.96 o
-8 10 -12 3730.77 3740.42 119.92 o
-10 11 12 2839.64 3118.64 114.75 o
-1 11 -12 2818.55 2968.16 188.70 o
-7 11 12 19906.50 19667.80 118.43 o
-4 11 -12 20031.40 20959.20 131.32 o
-4 11 12 13019.00 12610.90 133.37 o
-7 11 -12 12597.80 13341.30 125.64 o
-1 11 12 2097.19 2306.80 135.09 o
-10 11 -12 2230.19 2442.07 135.10 o
-6 12 12 5774.36 5981.84 125.15 o
-6 12 -12 5932.97 6431.94 122.61 o
-2 3 13 7236.51 6421.34 92.10 o
-1 3 -13 7247.32 7332.15 92.10 o
-1 4 13 14950.70 13427.70 100.26 o
-3 4 -13 15044.20 14577.80 102.84 o
-3 5 13 4188.26 4064.10 102.11 o
-2 5 -13 4233.99 4477.79 102.12 o
-5 6 13 16858.20 17907.50 123.48 o
-1 6 -13 17132.20 18890.80 126.08 o
-2 6 13 37170.90 34075.20 125.04 o
-4 6 -13 37097.20 38728.50 132.85 o
-4 7 13 15326.20 15320.90 113.07 o
-3 7 -13 16003.80 16406.90 115.69 o
-1 7 13 55306.80 51501.90 155.18 o
-6 7 -13 54237.60 57360.90 152.46 o
-6 8 13 5324.51 5296.94 125.14 o
-2 8 -13 5433.19 6037.98 112.38 o
-3 8 13 1964.74 1998.38 101.96 o
-5 8 -13 1859.46 1682.20 122.34 o
-8 9 13 17891.30 17503.80 136.31 o
-1 9 -13 18047.00 19552.70 210.91 o
-5 9 13 35596.90 34560.10 127.32 o
-4 9 -13 34209.10 36869.70 150.58 o
-2 9 13 51216.80 50887.30 170.32 o
-7 9 -13 52236.00 54922.00 154.69 o
-7 10 13 11574.70 12177.30 125.57 o
-3 10 -13 12257.70 12661.40 138.43 o
-4 10 13 36729.30 35043.10 137.73 o
-6 10 -13 34945.30 38404.50 153.17 o
-1 10 13 66549.70 67915.40 168.92 o
-9 10 -13 67864.10 72304.50 174.32 o
-6 11 13 695.27 853.23 117.16 o
-5 11 -13 744.27 1087.58 127.35 o
-3 11 13 1401.11 1197.54 196.19 o
-8 11 -13 1400.90 1368.25 275.18 o
0 1 14 1047.18 947.74 127.38 o
-1 1 -14 710.01 853.29 124.81 o
-2 2 14 9549.44 8091.29 138.31 o
0 2 -14 9082.50 10170.70 148.51 o
-1 3 14 240.56 542.38 91.67 o
-2 3 -14 273.29 486.37 94.22 o
-3 4 14 7056.79 6993.54 107.40 o
-1 4 -14 7354.04 7606.06 102.30 o
0 4 14 10429.30 9185.52 148.61 o
-4 4 -14 10460.80 11935.00 148.61 o
-5 5 14 34667.50 35632.50 184.50 o
0 5 -14 34107.50 26531.20 171.45 o
-2 5 14 14985.40 13634.30 115.61 o
-3 5 -14 15148.20 15724.50 115.62 o
-4 6 14 8105.99 7413.80 115.12 o
-2 6 -14 7887.55 8957.82 127.90 o
-1 6 14 955.89 759.13 109.54 o
-5 6 -14 822.10 983.23 112.08 o
-6 7 14 16288.50 16570.70 133.63 o
-1 7 -14 17358.70 17941.10 138.86 o
-3 7 14 19826.40 19472.50 128.77 o
-4 7 -14 20178.40 21202.30 139.10 o
0 7 14 15797.00 15143.90 187.53 o
-7 7 -14 15275.90 17214.50 177.21 o
-8 8 14 78821.50 74831.90 241.81 o
0 8 -14 77453.50 93240.80 268.19 o
-5 8 14 44248.70 43956.30 151.38 o
-3 8 -14 45148.20 47184.90 164.52 o
-2 8 14 15348.60 15224.20 136.11 o
-6 8 -14 15404.90 16529.40 141.26 o
-7 9 14 10367.40 9658.94 135.72 o
-2 9 -14 9709.98 11467.70 153.59 o
-4 9 14 4899.11 4871.11 112.33 o
-5 9 -14 4728.69 4173.74 135.30 o
-1 9 14 1840.48 1781.46 122.33 o
-8 9 -14 1590.27 2530.39 129.96 o
-6 10 14 18052.20 17289.60 141.42 o
-4 10 -14 17075.20 19847.80 143.92 o
-1 2 15 97128.90 77992.70 148.10 o
-1 2 -15 98312.80 89800.20 156.28 o
-2 4 15 67850.90 62644.50 150.87 o
-2 4 -15 66808.60 77077.70 156.07 o
-4 5 15 63161.40 59203.00 158.30 o
-1 5 -15 60918.20 71127.20 158.10 o
-1 5 15 44769.60 41505.20 146.25 o
-4 5 -15 45913.10 51022.80 151.57 o
-3 6 15 236.54 644.22 117.13 o
-3 6 -15 192.21 379.39 117.13 o
-5 7 15 36994.50 37411.20 155.92 o
-2 7 -15 38041.40 42055.80 153.41 o
-2 7 15 45270.30 44492.60 154.02 o
-5 7 -15 44594.50 51015.70 159.18 o
-4 8 15 28655.10 29239.70 134.49 o
-4 8 -15 29324.10 31677.30 155.24 o
-1 1 16 1844.49 1159.65 163.12 o
0 1 -16 1428.65 1225.62 152.88 o
0 2 16 7156.16 6373.11 155.94 o
-2 2 -16 7733.23 8538.63 166.22 o
-2 3 16 169.90 412.49 112.03 o
-1 3 -16 163.36 1155.98 112.03 o
-4 4 16 13022.00 12676.80 182.09 o
0 4 -16 13234.70 14594.30 171.85 o
-1 4 16 6918.35 6389.81 117.57 o
-3 4 -16 7020.57 8125.75 122.69 o
-3 5 16 10063.00 9224.84 133.14 o
-2 5 -16 9403.75 11647.80 133.09 o
0 5 16 20965.60 18459.40 211.20 o
-5 5 -16 20177.50 25075.60 213.68 o
-5 6 16 194.01 112.04 134.95 <
-1 6 -16 99.09 364.10 142.58 <
-2 6 16 4200.95 4570.48 130.15 o
-4 6 -16 4544.70 5268.15 132.73 o
-1 3 17 6125.17 5645.66 122.62 o
-2 3 -17 6250.80 7462.50 130.29 o
