#------------------------------------------------------------------------------
#$Date: 2021-05-18 19:36:50 +0300 (Tue, 18 May 2021) $
#$Revision: 265307 $
#$URL: file:///home/coder/svn-repositories/cod/cif/3/00/01/3000110.cif $
#------------------------------------------------------------------------------
#
# This file is available in the Crystallography Open Database (COD),
# http://www.crystallography.net/
#
# All data on this site have been placed in the public domain by the
# contributors.
#
data_3000110
loop_
_publ_author_name
'Bubnova, Rimma'
'Volkov, Sergey'
'Barbara Albert'
'Filatov, Stanislav'
_publ_section_title
;
 Borates--Crystal Structures of Prospective Nonlinear Optical Materials:
 High Anisotropy of the Thermal Expansion Caused by Anharmonic Atomic
 Vibrations
;
_journal_issue                   3
_journal_name_full               Crystals
_journal_page_first              93
_journal_paper_doi               10.3390/cryst7030093
_journal_volume                  7
_journal_year                    2017
_chemical_formula_sum            'Al2 B2 K2 O7'
_chemical_formula_weight         265.8
_space_group_IT_number           150
_symmetry_cell_setting           trigonal
_symmetry_Int_Tables_number      150
_symmetry_space_group_name_Hall  'P 3 2"'
_symmetry_space_group_name_H-M   'P 3 2 1'
_cell_angle_alpha                90
_cell_angle_beta                 90
_cell_angle_gamma                120
_cell_formula_units_Z            3
_cell_length_a                   8.5852(13)
_cell_length_b                   8.5852(13)
_cell_length_c                   8.4855(14)
_cell_measurement_temperature    173
_cell_volume                     541.64(15)
_diffrn_ambient_temperature      173
_diffrn_measured_fraction_theta_full 0.99
_diffrn_measured_fraction_theta_max 0.99
_diffrn_measurement_device       'four-circle diffractometer'
_diffrn_measurement_device_type  'IPDS Stoe'
_diffrn_measurement_method       '??integration method??'
_diffrn_radiation_monochromator  graphite
_diffrn_radiation_probe          x-ray
_diffrn_radiation_source         'X-ray tube'
_diffrn_radiation_type           'Mo K\a'
_diffrn_radiation_wavelength     0.71073
_diffrn_reflns_av_R_equivalents  0.0408
_diffrn_reflns_av_unetI/netI     0.0172
_diffrn_reflns_limit_h_max       11
_diffrn_reflns_limit_h_min       -11
_diffrn_reflns_limit_k_max       11
_diffrn_reflns_limit_k_min       -11
_diffrn_reflns_limit_l_max       11
_diffrn_reflns_limit_l_min       -11
_diffrn_reflns_number            5171
_diffrn_reflns_theta_full        29.31
_diffrn_reflns_theta_max         29.31
_diffrn_reflns_theta_min         2.4
_exptl_absorpt_coefficient_mu    1.55
_exptl_crystal_density_diffrn    2.4444
_exptl_crystal_F_000             390
_refine_diff_density_max         0.23
_refine_diff_density_min         -0.25
_refine_ls_abs_structure_details
'  402 of Friedel pairs used in the refinement'
_refine_ls_extinction_coef       2200(200)
_refine_ls_extinction_method
'B-C type 1 Gaussian isotropic (Becker & Coppens, 1974)'
_refine_ls_goodness_of_fit_gt    1.34
_refine_ls_goodness_of_fit_ref   1.31
_refine_ls_number_constraints    0
_refine_ls_number_parameters     63
_refine_ls_number_reflns         993
_refine_ls_number_restraints     0
_refine_ls_R_factor_all          0.0251
_refine_ls_R_factor_gt           0.0215
_refine_ls_shift/su_max          0.0050
_refine_ls_shift/su_mean         0.0008
_refine_ls_structure_factor_coef F
_refine_ls_weighting_details     w=1/(\s^2^(F)+0.0001F^2^)
_refine_ls_weighting_scheme      sigma
_refine_ls_wR_factor_gt          0.0224
_refine_ls_wR_factor_ref         0.0229
_reflns_number_gt                914
_reflns_number_total             993
_reflns_threshold_expression     I>3\s(I)
_cod_data_source_file            K2Al2B2O7_173K.cif
_cod_data_source_block           I
_cod_depositor_comments
;
The following automatic conversions were performed:

'_diffrn_radiation_probe' value 'X-ray' changed to 'x-ray' according
to the built-in table from CIF Core dictionary named 'cif_core.dic'
version 2.4.1 from 2010-06-29.

Automatic conversion script
Id: cif_fix_values 4624 2016-04-14 12:54:50Z antanas 

 Released structure into public domain as published material.

 Antanas Vaitkus,
 2021-05-18
;
_cod_original_sg_symbol_Hall     'P 3;2"'
_cod_database_code               3000110
loop_
_space_group_symop_id
_space_group_symop_operation_xyz
1 x,y,z
2 -y,x-y,z
3 -x+y,-x,z
4 y,x,-z
5 x-y,-y,-z
6 -x,-x+y,-z
loop_
_atom_site_label
_atom_site_type_symbol
_atom_site_fract_x
_atom_site_fract_y
_atom_site_fract_z
_atom_site_adp_type
_atom_site_U_iso_or_equiv
_atom_site_site_symmetry_multiplicity
_atom_site_occupancy
_atom_site_calc_flag
_atom_site_refinement_flags
_atom_site_disorder_assembly
_atom_site_disorder_group
K1 K 0.31053(10) 0 0 Uani 0.0131(2) 3 1 d . . .
K2 K 0.35789(9) 0 0.5 Uani 0.0130(2) 3 1 d . . .
Al1 Al 0 0 0.29834(16) Uani 0.0082(3) 2 1 d . . .
Al2 Al 0.333333 0.666667 0.18306(15) Uani 0.0072(3) 2 1 d . . .
Al3 Al 0.666667 0.333333 0.22287(15) Uani 0.0077(3) 2 1 d . . .
O1 O 0.1568(3) 0.2146(3) 0.2253(2) Uani 0.0135(8) 6 1 d . . .
O2 O 0.3999(3) 0.5162(3) 0.2523(2) Uani 0.0124(7) 6 1 d . . .
O3 O 0.4513(3) 0.2721(2) 0.2942(2) Uani 0.0118(7) 6 1 d . . .
O4 O 0 0 0.5 Uani 0.0231(13) 1 1 d . . .
O5 O 0.666667 0.333333 0.0198(4) Uani 0.0196(8) 2 1 d . . .
B1 B 0.3349(5) 0.3339(4) 0.2583(4) Uani 0.0086(11) 6 1 d . . .
loop_
_atom_site_aniso_label
_atom_site_aniso_type_symbol
_atom_site_aniso_U_11
_atom_site_aniso_U_22
_atom_site_aniso_U_33
_atom_site_aniso_U_12
_atom_site_aniso_U_13
_atom_site_aniso_U_23
K1 K 0.0128(3) 0.0118(3) 0.0144(4) 0.00588(17) 0.00170(14) 0.0034(3)
K2 K 0.0127(3) 0.0123(3) 0.0139(4) 0.00616(17) 0.00187(16) 0.0037(3)
Al1 Al 0.0073(4) 0.0073(4) 0.0101(6) 0.00363(19) 0 0
Al2 Al 0.0065(4) 0.0065(4) 0.0086(6) 0.0032(2) 0 0
Al3 Al 0.0065(4) 0.0065(4) 0.0101(6) 0.0033(2) 0 0
O1 O 0.0078(9) 0.0080(10) 0.0217(10) 0.0019(8) -0.0027(7) 0.0018(7)
O2 O 0.0100(8) 0.0075(9) 0.0204(8) 0.0049(8) -0.0031(7) 0.0007(7)
O3 O 0.0083(9) 0.0095(9) 0.0184(8) 0.0050(8) 0.0017(7) 0.0036(6)
O4 O 0.0294(17) 0.0294(17) 0.010(2) 0.0147(9) 0 0
O5 O 0.0235(11) 0.0235(11) 0.0116(12) 0.0118(5) 0 0
B1 B 0.0086(14) 0.0099(15) 0.0079(10) 0.0051(12) 0.0020(7) 0.0006(8)
loop_
_atom_type_symbol
_atom_type_scat_dispersion_real
_atom_type_scat_dispersion_imag
_atom_type_scat_source
Al 0.0645 0.0514 'International Tables Vol C tables 4.2.6.8 and 6.1.1.1'
B 0.0013 0.0007 'International Tables Vol C tables 4.2.6.8 and 6.1.1.1'
K 0.2009 0.2494 'International Tables Vol C tables 4.2.6.8 and 6.1.1.1'
O 0.0106 0.0060 'International Tables Vol C tables 4.2.6.8 and 6.1.1.1'
loop_
_geom_angle_atom_site_label_1
_geom_angle_atom_site_label_2
_geom_angle_atom_site_label_3
_geom_angle_site_symmetry_1
_geom_angle_site_symmetry_2
_geom_angle_site_symmetry_3
_geom_angle
Al1 O1 B1 . . . 133.5(2)
Al2 O2 B1 . . . 139.0(2)
Al3 O3 B1 . . . 131.70(17)
Al1 O4 Al1 . . 4_556 180.0(5)
Al2 O5 Al3 4_555 . . 180.0(5)
loop_
_geom_bond_atom_site_label_1
_geom_bond_atom_site_label_2
_geom_bond_site_symmetry_1
_geom_bond_site_symmetry_2
_geom_bond_distance
O1 Al1 . . 1.764(2)
O1 B1 . . 1.378(4)
O2 Al2 . . 1.754(3)
O2 B1 . . 1.375(4)
O3 Al3 . . 1.758(2)
O3 B1 . . 1.379(5)
O4 Al1 . . 1.7112(14)
O4 Al1 . 4_556 1.7112(14)
O5 Al2 . 4_555 1.721(4)
O5 Al3 . . 1.723(4)
loop_
_refln_index_h
_refln_index_k
_refln_index_l
_refln_F_squared_calc
_refln_F_squared_meas
_refln_F_squared_sigma
_refln_observed_status
0 1 0 0.06 8.64 10.22 <
-1 2 0 1568.55 1522.49 16.90 o
1 1 0 1499.51 1657.28 17.40 o
0 2 0 9.55 13.53 9.50 <
-1 3 0 9.54 20.30 8.06 <
1 2 0 9.62 12.38 7.92 <
-2 4 0 8613.40 9330.60 30.99 o
2 2 0 8666.58 8832.56 23.91 o
-1 4 0 9.15 9.64 6.91 <
1 3 0 9.11 7.92 6.91 <
0 4 0 17.87 21.16 9.07 <
-2 5 0 16.84 20.01 7.20 <
2 3 0 16.58 18.43 7.20 <
-1 5 0 2977.65 2872.26 10.29 o
1 4 0 2897.87 2984.26 10.30 o
0 5 0 52.58 59.46 6.91 o
-3 6 0 15710.30 15725.70 34.07 o
3 3 0 15725.30 15840.30 33.90 o
-2 6 0 37.66 35.27 7.05 o
2 4 0 37.38 43.19 7.20 o
-1 6 0 12.64 5.04 7.05 <
1 5 0 12.49 16.99 7.48 <
0 6 0 7632.75 7601.09 12.89 o
-3 7 0 32.99 35.99 7.49 o
3 4 0 33.63 35.56 7.49 o
-2 7 0 492.98 552.96 8.23 o
2 5 0 523.64 454.50 8.08 o
-1 7 0 39.44 39.30 7.20 o
1 6 0 39.61 38.15 7.49 o
0 7 0 51.40 60.32 7.49 o
-4 8 0 61.43 51.54 12.81 o
4 4 0 52.34 58.45 12.53 o
-3 8 0 54.46 55.86 8.64 o
3 5 0 54.66 46.21 7.63 o
-2 8 0 61.67 68.39 7.92 o
2 6 0 61.38 58.45 8.06 o
-1 8 0 785.87 753.75 8.52 o
1 7 0 769.46 800.95 8.52 o
0 8 0 37.36 35.41 8.21 o
-4 9 0 54.77 48.23 9.21 o
4 5 0 54.31 46.93 9.21 o
-3 9 0 3476.61 3468.74 11.97 o
3 6 0 3467.40 3416.64 10.95 o
-2 9 0 65.17 52.55 9.21 o
2 7 0 65.34 60.47 8.64 o
-1 9 0 50.11 41.17 8.78 o
1 8 0 50.62 45.35 8.78 o
0 9 0 1710.59 1725.59 11.15 o
-5 10 0 668.48 673.58 14.72 o
5 5 0 675.94 681.04 14.86 o
-4 10 0 41.26 50.53 11.08 o
4 6 0 40.90 46.64 9.07 o
-3 10 0 41.59 42.90 9.79 o
3 7 0 41.65 41.31 10.22 o
-2 10 0 819.10 858.14 11.12 o
2 8 0 839.45 818.01 10.83 o
-1 10 0 89.24 83.07 10.37 o
1 9 0 89.42 90.42 10.65 o
0 10 0 59.55 46.50 11.52 o
-5 11 0 39.17 41.75 12.24 o
5 6 0 39.44 38.29 10.36 o
-4 11 0 616.20 576.91 12.12 o
4 7 0 601.74 643.76 11.97 o
-3 11 0 60.55 69.24 11.52 o
3 8 0 60.45 53.99 12.38 o
-2 11 0 65.95 63.34 12.24 o
2 9 0 66.08 61.62 12.24 o
0 0 1 46.39 76.14 14.13 o
-1 1 1 135.18 144.23 7.96 o
0 1 1 190.88 205.51 8.37 o
-2 2 1 1533.53 1641.70 9.71 o
-1 2 1 172.55 194.92 8.52 o
1 1 1 172.60 189.00 7.94 o
0 2 1 1426.13 1483.54 11.22 o
-3 3 1 3272.78 3627.58 11.27 o
-2 3 1 1086.70 1167.15 9.23 o
-3 2 1 1096.81 1119.90 8.50 o
-1 3 1 1291.03 1389.76 9.32 o
1 2 1 1307.80 1347.62 10.05 o
0 3 1 4338.65 4851.02 12.72 o
-4 4 1 25.37 24.18 6.48 o
-3 4 1 394.76 386.12 7.80 o
-4 3 1 384.83 408.59 6.65 o
-2 4 1 92.75 105.88 6.91 o
2 2 1 92.78 101.99 6.48 o
-1 4 1 401.46 387.79 7.22 o
1 3 1 393.21 401.59 7.37 o
0 4 1 10.88 14.40 6.62 <
-5 5 1 1314.29 1319.20 8.84 o
-4 5 1 1209.88 1275.35 8.99 o
-5 4 1 1213.12 1269.43 7.98 o
-3 5 1 1150.84 1133.95 7.99 o
-5 3 1 1144.95 1137.85 7.84 o
-2 5 1 1178.21 1176.67 8.13 o
2 3 1 1171.83 1151.68 7.98 o
-1 5 1 1128.60 1186.53 8.42 o
1 4 1 1124.99 1172.12 8.42 o
0 5 1 1110.73 1107.76 8.14 o
-6 6 1 235.30 216.07 8.78 o
-5 6 1 811.52 818.05 10.71 o
-6 5 1 814.44 807.71 7.67 o
-4 6 1 473.83 490.06 8.23 o
-6 4 1 483.50 465.32 6.93 o
-3 6 1 37.46 49.81 7.05 o
3 3 1 37.72 40.31 7.05 o
-2 6 1 462.47 472.53 7.65 o
2 4 1 471.56 450.53 7.51 o
-1 6 1 873.97 876.61 7.95 o
1 5 1 881.47 851.70 9.25 o
0 6 1 107.31 92.56 7.06 o
-7 7 1 61.32 68.96 8.06 o
-6 7 1 240.46 222.25 7.78 o
-7 6 1 230.67 249.93 7.78 o
-5 7 1 845.32 838.23 8.67 o
-7 5 1 842.43 828.25 7.80 o
-4 7 1 125.89 129.47 8.50 o
-7 4 1 125.58 125.30 7.49 o
-3 7 1 123.09 120.12 7.35 o
3 4 1 119.22 122.43 7.35 o
-2 7 1 772.58 757.94 8.24 o
2 5 1 775.55 745.95 8.10 o
-1 7 1 269.16 261.07 7.78 o
1 6 1 265.25 270.17 7.78 o
0 7 1 64.75 73.42 7.49 o
-8 8 1 707.22 687.33 9.38 o
-7 8 1 211.56 198.72 8.36 o
-8 7 1 212.61 211.27 8.36 o
-6 8 1 660.55 651.04 8.81 o
-8 6 1 658.42 673.47 8.23 o
-5 8 1 950.30 941.98 9.54 o
-8 5 1 949.21 943.03 7.95 o
-4 8 1 66.72 66.23 8.21 o
4 4 1 66.35 65.36 7.92 o
-3 8 1 963.49 974.40 8.38 o
3 5 1 958.85 920.22 8.67 o
-2 8 1 733.60 724.63 8.95 o
2 6 1 723.87 748.33 9.24 o
-1 8 1 363.04 346.76 8.50 o
1 7 1 361.35 349.35 8.50 o
0 8 1 673.21 696.35 9.09 o
-9 9 1 34.41 49.10 9.65 o
-8 9 1 481.98 468.45 9.52 o
-9 8 1 488.20 488.03 9.52 o
-7 9 1 392.85 400.07 9.08 o
-9 7 1 399.01 395.44 9.51 o
-6 9 1 208.40 204.00 9.65 o
-9 6 1 208.52 195.07 8.35 o
-5 9 1 342.02 336.80 10.24 o
-9 5 1 345.21 326.54 9.66 o
-4 9 1 380.39 400.51 8.94 o
4 5 1 392.25 377.58 8.94 o
-3 9 1 117.41 128.67 8.65 o
3 6 1 118.30 115.99 8.93 o
-2 9 1 350.29 374.99 9.23 o
2 7 1 354.74 339.65 8.94 o
-1 9 1 464.34 475.87 9.08 o
1 8 1 470.33 474.26 9.52 o
0 9 1 83.20 91.11 9.64 o
-10 10 1 93.91 96.46 12.09 o
-9 10 1 164.29 169.09 11.23 o
-10 9 1 160.89 168.37 10.51 o
-8 10 1 104.88 110.87 10.22 o
-10 8 1 107.49 124.83 10.22 o
-7 10 1 192.08 189.21 10.66 o
-10 7 1 189.49 185.18 9.79 o
-6 10 1 193.72 179.29 10.51 o
-10 6 1 186.92 200.90 10.37 o
-5 10 1 3.18 3.60 10.22 <
5 5 1 2.84 6.05 9.50 <
-4 10 1 169.66 170.83 10.66 o
4 6 1 168.71 172.56 9.94 o
-3 10 1 147.47 146.78 9.94 o
3 7 1 146.26 143.90 11.52 o
-2 10 1 104.35 113.17 10.65 o
2 8 1 101.79 109.86 10.37 o
-1 10 1 187.25 192.10 10.51 o
1 9 1 183.84 192.82 10.51 o
0 10 1 92.25 82.35 11.66 o
-9 11 1 265.54 267.18 14.41 o
-11 9 1 262.08 255.08 16.43 o
-8 11 1 372.69 374.53 11.96 o
-11 8 1 371.79 367.18 12.25 o
-7 11 1 89.09 81.47 11.80 o
-11 7 1 88.19 88.09 12.09 o
-6 11 1 452.54 415.15 12.11 o
-11 6 1 451.06 453.94 10.67 o
-5 11 1 445.64 429.45 13.84 o
5 6 1 441.84 453.39 11.10 o
-4 11 1 37.07 38.16 12.67 o
4 7 1 37.35 38.73 11.66 o
-3 11 1 361.25 376.15 11.96 o
3 8 1 361.45 358.85 11.53 o
-2 11 1 329.23 319.48 21.61 o
2 9 1 328.55 341.38 21.46 o
0 0 2 5247.02 5971.81 25.18 o
-1 1 2 243.07 256.27 7.52 o
0 1 2 242.15 248.62 8.09 o
-2 2 2 40.99 89.12 7.34 o
1 1 2 17413.80 15831.90 48.33 o
0 2 2 30.88 47.67 6.77 o
-3 3 2 3800.38 4010.49 10.08 o
-2 3 2 92.22 95.64 7.06 o
-3 2 2 90.66 101.54 5.33 o
-1 3 2 74.00 77.66 7.64 o
1 2 2 74.67 77.52 6.05 o
0 3 2 3326.65 3412.92 10.79 o
-4 4 2 54.13 56.76 6.05 o
-3 4 2 62.32 67.66 6.77 o
-4 3 2 64.13 57.30 5.76 o
-2 4 2 2093.88 1807.57 9.52 o
2 2 2 2064.58 1919.80 7.33 o
-1 4 2 39.38 49.69 6.48 o
1 3 2 38.10 39.17 6.63 o
0 4 2 95.46 94.15 7.05 o
-5 5 2 100.18 94.57 6.48 o
-4 5 2 5394.79 5405.83 11.82 o
-5 4 2 5430.62 5372.58 10.17 o
-3 5 2 55.73 55.04 7.78 o
-5 3 2 54.85 50.72 5.48 o
-2 5 2 119.71 115.88 6.91 o
2 3 2 120.06 119.04 6.62 o
-1 5 2 5604.58 5582.27 12.08 o
1 4 2 5625.08 5415.54 12.07 o
0 5 2 47.36 55.46 7.06 o
-6 6 2 8.31 10.51 6.77 <
-5 6 2 77.01 69.10 6.91 o
-6 5 2 76.74 76.58 6.62 o
-4 6 2 119.81 124.55 8.22 o
-6 4 2 118.43 113.45 6.20 o
-3 6 2 217.96 196.70 7.64 o
3 3 2 205.62 219.50 6.77 o
-2 6 2 204.85 210.07 7.34 o
2 4 2 207.30 197.26 7.20 o
-1 6 2 42.49 49.11 7.92 o
1 5 2 43.49 42.91 7.78 o
0 6 2 13.70 21.45 6.91 o
-7 7 2 25.80 23.33 8.06 <
-6 7 2 116.30 112.57 8.06 o
-7 6 2 113.81 112.57 7.34 o
-5 7 2 4010.43 3982.73 11.57 o
-7 5 2 4019.18 3941.78 9.96 o
-4 7 2 28.62 35.12 8.06 o
-7 4 2 29.00 26.06 6.19 o
-3 7 2 32.07 24.76 6.91 o
3 4 2 30.68 30.37 7.20 o
-2 7 2 3742.28 3718.59 10.73 o
2 5 2 3750.24 3532.92 10.43 o
-1 7 2 60.31 69.14 7.35 o
1 6 2 62.69 58.77 7.92 o
0 7 2 59.97 59.16 7.92 o
-8 8 2 51.45 55.87 8.35 o
-7 8 2 594.22 614.30 8.80 o
-8 7 2 597.29 597.66 8.80 o
-6 8 2 42.84 50.23 10.51 o
-8 6 2 42.65 40.16 7.34 o
-5 8 2 75.91 70.82 9.36 o
-8 5 2 77.31 75.86 7.05 o
-4 8 2 2334.56 2361.24 10.91 o
4 4 2 2315.02 2378.44 9.02 o
-3 8 2 39.79 40.61 7.78 o
3 5 2 38.08 32.97 7.63 o
-2 8 2 22.48 28.36 8.93 o
2 6 2 23.05 30.81 8.78 o
-1 8 2 603.69 618.98 8.51 o
1 7 2 613.28 604.09 8.22 o
0 8 2 93.22 88.09 8.06 o
-9 9 2 3.28 16.70 9.50 <
-8 9 2 98.27 102.51 9.21 o
-9 8 2 101.99 102.22 9.36 o
-7 9 2 70.71 78.32 9.21 o
-9 7 2 72.77 74.00 8.64 o
-6 9 2 57.12 79.03 9.21 o
-9 6 2 63.66 66.51 7.49 o
-5 9 2 51.59 60.46 10.22 o
-9 5 2 49.95 52.55 9.50 o
-4 9 2 52.91 70.25 9.93 o
4 5 2 54.92 56.00 8.35 o
-3 9 2 49.29 58.02 8.49 o
3 6 2 52.93 45.49 8.49 o
-2 9 2 80.01 77.89 8.49 o
2 7 2 77.70 79.18 8.64 o
-1 9 2 91.70 97.62 8.93 o
1 8 2 87.21 96.47 8.93 o
0 9 2 6.60 14.68 9.79 <
-10 10 2 74.26 74.71 11.37 o
-9 10 2 49.87 43.33 10.65 o
-10 9 2 48.04 51.68 10.65 o
-8 10 2 1358.23 1323.03 12.44 o
-10 8 2 1350.32 1397.89 13.60 o
-7 10 2 46.78 49.25 10.80 o
-10 7 2 47.04 48.10 8.78 o
-6 10 2 62.69 47.95 10.51 o
-10 6 2 59.94 65.08 10.94 o
-5 10 2 170.76 168.79 11.67 o
5 5 2 165.39 176.14 9.36 o
-4 10 2 93.81 105.52 11.08 o
4 6 2 97.09 89.83 10.08 o
-3 10 2 102.21 105.22 9.79 o
3 7 2 102.39 91.98 10.08 o
-2 10 2 1403.95 1432.71 11.71 o
2 8 2 1398.69 1396.21 11.71 o
-1 10 2 54.25 53.26 10.22 o
1 9 2 55.95 66.36 10.94 o
0 10 2 47.06 41.32 11.37 o
-8 11 2 97.39 80.17 12.52 o
-11 8 2 99.30 104.21 11.52 o
-7 11 2 855.88 861.16 13.28 o
-11 7 2 862.83 880.03 11.40 o
-6 11 2 66.56 73.85 12.52 o
-11 6 2 65.83 60.75 10.51 o
-5 11 2 56.11 59.31 14.25 o
5 6 2 56.14 53.27 10.80 o
-4 11 2 838.95 830.97 14.73 o
4 7 2 843.88 852.58 12.56 o
-3 11 2 46.93 40.75 11.23 o
3 8 2 45.06 53.42 11.81 o
0 0 3 50.05 53.58 10.66 o
-1 1 3 85.82 67.58 6.20 o
0 1 3 91.19 57.78 5.62 o
-2 2 3 49.89 48.38 5.76 o
-1 2 3 84.06 72.75 5.33 o
1 1 3 84.51 79.09 6.34 o
0 2 3 40.16 43.49 5.76 o
-3 3 3 1572.31 1647.74 7.35 o
-2 3 3 1224.79 1196.31 8.21 o
-3 2 3 1219.10 1236.53 7.19 o
-1 3 3 1734.21 1697.29 8.42 o
1 2 3 1718.94 1713.71 7.55 o
0 3 3 2156.97 2242.98 9.30 o
-4 4 3 1283.03 1255.67 7.88 o
-3 4 3 871.74 886.82 7.94 o
-4 3 3 890.14 868.08 5.78 o
-2 4 3 103.68 105.44 7.20 o
2 2 3 103.92 107.46 5.19 o
-1 4 3 605.03 600.00 7.84 o
1 3 3 607.75 579.55 6.09 o
0 4 3 1707.20 1669.18 7.97 o
-5 5 3 45.36 52.29 6.19 o
-4 5 3 634.91 636.41 7.95 o
-5 4 3 639.15 659.84 6.07 o
-3 5 3 186.88 200.69 7.49 o
-5 3 3 190.74 189.29 5.33 o
-2 5 3 157.19 171.80 7.64 o
2 3 3 161.96 157.96 5.62 o
-1 5 3 619.04 633.43 8.53 o
1 4 3 615.25 629.51 7.37 o
0 5 3 113.89 112.84 7.20 o
-6 6 3 133.12 132.72 6.77 o
-5 6 3 95.74 99.50 7.49 o
-6 5 3 99.70 97.63 6.48 o
-4 6 3 767.97 759.89 8.38 o
-6 4 3 757.93 773.39 6.07 o
-3 6 3 3.26 5.90 7.63 <
3 3 3 3.20 10.22 5.76 <
-2 6 3 775.31 752.98 8.53 o
2 4 3 771.35 747.57 8.09 o
-1 6 3 97.59 87.70 7.20 o
1 5 3 89.34 113.91 7.63 o
0 6 3 67.11 60.79 7.06 o
-7 7 3 1174.35 1172.05 8.41 o
-6 7 3 1187.04 1160.74 9.10 o
-7 6 3 1196.56 1196.92 8.09 o
-5 7 3 568.81 563.34 8.80 o
-7 5 3 574.47 581.10 6.49 o
-4 7 3 897.91 898.30 8.83 o
-7 4 3 894.26 898.46 6.95 o
-3 7 3 1098.38 1093.77 8.96 o
3 4 3 1098.74 1092.64 8.09 o
-2 7 3 488.75 478.27 8.95 o
2 5 3 482.12 470.18 7.80 o
-1 7 3 885.48 897.04 9.85 o
1 6 3 888.43 871.48 9.99 o
0 7 3 1441.74 1417.47 8.96 o
-8 8 3 52.89 57.18 8.93 o
-7 8 3 151.44 147.42 9.37 o
-8 7 3 149.32 155.93 7.93 o
-6 8 3 229.69 234.05 8.94 o
-8 6 3 229.17 231.29 6.92 o
-5 8 3 35.62 42.47 9.21 o
-8 5 3 40.31 42.04 6.48 o
-4 8 3 25.11 44.48 8.35 o
4 4 3 25.63 29.51 7.63 o
-3 8 3 47.38 57.01 8.78 o
3 5 3 49.99 53.55 6.62 o
-2 8 3 268.52 278.17 10.08 o
2 6 3 283.25 264.33 8.35 o
-1 8 3 245.45 246.35 8.35 o
1 7 3 248.26 249.24 8.06 o
0 8 3 124.96 131.27 8.92 o
-9 9 3 18.86 35.85 10.08 o
-8 9 3 276.75 270.89 11.38 o
-9 8 3 270.89 291.52 9.94 o
-7 9 3 368.54 372.82 12.39 o
-9 7 3 357.06 381.91 8.21 o
-6 9 3 82.88 87.27 10.51 o
-9 6 3 80.90 88.99 7.92 o
-5 9 3 668.12 661.65 9.97 o
-9 5 3 668.66 682.67 8.96 o
-4 9 3 856.47 849.29 10.10 o
4 5 3 838.99 866.92 8.08 o
-3 9 3 112.68 112.87 10.51 o
3 6 3 114.00 111.14 7.92 o
-2 9 3 348.87 336.25 10.52 o
2 7 3 347.31 360.20 9.08 o
-1 9 3 306.55 298.93 10.08 o
1 8 3 295.19 311.48 9.65 o
0 9 3 41.99 57.43 10.08 o
-9 10 3 584.28 608.46 13.84 o
-10 9 3 589.37 586.10 11.68 o
-8 10 3 105.40 99.64 11.66 o
-10 8 3 101.29 114.18 9.65 o
-7 10 3 380.25 389.14 11.54 o
-10 7 3 383.67 383.79 9.23 o
-6 10 3 698.56 725.72 12.69 o
-10 6 3 711.49 691.81 10.96 o
-5 10 3 99.05 87.83 11.37 o
5 5 3 99.65 91.14 8.93 o
-4 10 3 614.43 619.62 11.26 o
4 6 3 613.43 610.04 8.95 o
-3 10 3 504.04 516.41 11.53 o
3 7 3 506.88 505.88 11.09 o
-2 10 3 103.10 121.52 12.24 o
2 8 3 106.63 98.34 10.08 o
-1 10 3 496.55 502.71 10.82 o
1 9 3 498.71 487.69 10.82 o
-8 11 3 120.31 99.37 16.27 o
-11 8 3 120.53 126.30 16.13 o
-7 11 3 15.08 27.35 13.10 <
-11 7 3 16.08 26.34 10.94 <
-6 11 3 104.43 106.55 12.96 o
-11 6 3 104.87 115.90 10.51 o
-5 11 3 103.00 123.82 13.25 o
5 6 3 109.89 113.74 10.51 o
-4 11 3 22.86 34.40 13.67 <
4 7 3 22.33 32.10 11.08 <
-1 1 4 528.22 548.57 5.93 o
0 1 4 484.67 492.08 5.93 o
-2 2 4 111.38 119.90 5.76 o
-1 2 4 1149.42 1048.50 5.96 o
1 1 4 1141.42 1056.23 7.12 o
0 2 4 44.45 47.56 5.48 o
-3 3 4 4807.85 4818.48 9.46 o
-2 3 4 137.21 134.83 5.48 o
-3 2 4 137.82 150.70 5.77 o
-1 3 4 207.22 203.52 5.62 o
1 2 4 205.68 202.23 5.76 o
0 3 4 5438.75 5390.94 9.80 o
-4 4 4 208.76 209.09 6.05 o
-3 4 4 26.58 29.65 6.48 o
-4 3 4 25.39 26.48 6.19 o
-2 4 4 3638.46 3631.40 9.29 o
2 2 4 3658.82 3589.50 8.26 o
-1 4 4 11.05 15.55 5.90 <
1 3 4 11.32 13.53 5.76 <
0 4 4 195.78 190.10 6.34 o
-5 5 4 73.96 79.54 6.77 o
-4 5 4 1018.02 939.83 7.95 o
-5 4 4 987.75 1021.78 6.50 o
-3 5 4 148.15 145.32 7.06 o
-5 3 4 149.75 147.91 5.47 o
-2 5 4 122.04 130.53 7.35 o
2 3 4 120.87 119.29 5.76 o
-1 5 4 841.77 744.51 8.25 o
1 4 4 820.91 810.83 6.66 o
0 5 4 162.93 170.72 7.63 o
-6 6 4 2866.94 2824.64 8.89 o
-5 6 4 38.94 28.08 7.92 o
-6 5 4 38.68 36.87 5.90 o
-4 6 4 551.08 540.35 8.06 o
-6 4 4 554.14 549.14 5.90 o
-3 6 4 5751.36 5618.99 12.01 o
3 3 4 5759.66 5636.79 9.34 o
-2 6 4 286.08 279.25 8.09 o
2 4 4 283.99 280.98 6.21 o
-1 6 4 79.89 72.98 7.92 o
1 5 4 77.73 87.23 6.62 o
0 6 4 2700.61 2577.24 11.82 o
-7 7 4 93.81 97.44 8.06 o
-6 7 4 69.56 75.17 7.63 o
-7 6 4 74.42 68.83 7.20 o
-5 7 4 46.60 55.01 8.21 o
-7 5 4 49.37 54.43 6.05 o
-4 7 4 61.36 65.66 7.78 o
-7 4 4 60.54 67.24 6.05 o
-3 7 4 74.44 85.66 7.77 o
3 4 4 75.51 76.59 6.19 o
-2 7 4 86.96 100.04 8.49 o
2 5 4 86.04 92.27 7.63 o
-1 7 4 98.65 90.56 9.50 o
1 6 4 95.53 98.33 8.21 o
0 7 4 38.99 45.51 9.50 o
-8 8 4 179.41 175.60 9.21 o
-7 8 4 458.50 450.42 9.23 o
-8 7 4 460.13 455.19 8.36 o
-6 8 4 35.24 34.99 9.50 o
-8 6 4 35.72 30.38 7.20 o
-5 8 4 43.56 46.51 8.78 o
-8 5 4 41.15 62.78 6.62 o
-4 8 4 115.19 131.91 8.78 o
4 4 4 123.87 106.27 7.06 o
-3 8 4 84.36 92.70 8.78 o
3 5 4 86.46 82.05 7.05 o
-2 8 4 60.52 58.30 9.50 o
2 6 4 60.21 55.85 7.48 o
-1 8 4 458.21 439.48 10.38 o
1 7 4 452.80 466.74 8.80 o
0 8 4 71.66 68.72 9.94 o
-9 9 4 623.61 627.78 11.25 o
-8 9 4 97.81 88.00 11.23 o
-9 8 4 92.39 107.44 9.22 o
-7 9 4 48.26 45.49 9.79 o
-9 7 4 44.35 50.38 7.77 o
-6 9 4 1306.09 1278.35 10.99 o
-9 6 4 1299.28 1308.75 8.97 o
-5 9 4 42.67 44.91 9.36 o
-9 5 4 45.31 45.78 8.06 o
-4 9 4 37.62 37.72 9.65 o
4 5 4 34.95 41.60 7.77 o
-3 9 4 1261.76 1218.62 11.28 o
3 6 4 1259.57 1249.78 8.82 o
-2 9 4 30.21 28.22 10.65 <
2 7 4 33.11 35.70 8.06 o
-1 9 4 145.67 165.84 11.80 o
1 8 4 152.79 161.24 9.93 o
0 9 4 635.08 665.66 12.98 o
-9 10 4 111.17 87.67 12.96 o
-10 9 4 113.64 103.22 14.11 o
-8 10 4 87.94 101.51 16.27 o
-10 8 4 94.86 78.46 10.65 o
-7 10 4 125.35 115.86 11.66 o
-10 7 4 124.91 128.39 9.07 o
-6 10 4 119.81 117.32 11.37 o
-10 6 4 124.17 123.23 10.22 o
-5 10 4 400.44 399.68 11.39 o
5 5 4 400.28 407.04 9.08 o
-4 10 4 81.16 87.41 11.23 o
4 6 4 76.39 82.23 8.93 o
-3 10 4 49.35 44.21 12.82 o
3 7 4 49.23 48.97 10.08 o
-2 10 4 88.63 106.26 12.24 o
2 8 4 94.94 88.97 10.08 o
-1 10 4 79.48 84.53 12.82 o
1 9 4 77.40 74.59 10.94 o
-6 11 4 32.54 46.64 14.11 o
-11 6 4 33.49 36.13 12.81 <
-5 11 4 41.11 44.77 12.67 o
5 6 4 40.85 36.27 12.95 <
0 0 5 0.27 15.54 9.21 <
-1 1 5 185.58 181.47 5.49 o
0 1 5 447.57 449.71 5.61 o
-2 2 5 2645.41 2668.05 8.08 o
-1 2 5 172.17 176.53 5.48 o
1 1 5 172.55 172.06 6.20 o
0 2 5 1259.62 1221.55 7.23 o
-3 3 5 391.06 404.24 5.94 o
-2 3 5 1772.70 1759.47 7.27 o
-3 2 5 1768.00 1692.94 8.30 o
-1 3 5 3433.25 3452.50 8.09 o
1 2 5 3478.90 3369.61 8.09 o
0 3 5 803.05 824.96 6.48 o
-4 4 5 256.72 252.88 6.08 o
-3 4 5 1312.84 1282.64 7.50 o
-4 3 5 1288.83 1290.81 6.78 o
-2 4 5 137.18 144.91 6.48 o
2 2 5 137.15 130.22 5.47 o
-1 4 5 705.11 684.33 6.39 o
1 3 5 707.43 690.44 6.40 o
0 4 5 664.48 639.20 6.62 o
-5 5 5 1932.19 1915.05 8.38 o
-4 5 5 301.11 306.31 6.77 o
-5 4 5 303.52 297.23 5.76 o
-3 5 5 1086.49 1040.34 7.28 o
-5 3 5 1084.18 1083.46 6.56 o
-2 5 5 1838.79 1828.63 7.65 o
2 3 5 1824.65 1836.12 7.08 o
-1 5 5 239.73 231.56 6.78 o
1 4 5 237.29 240.79 6.20 o
0 5 5 1175.27 1173.66 7.43 o
-6 6 5 110.37 116.87 6.48 o
-5 6 5 951.54 931.23 7.84 o
-6 5 5 944.34 936.23 6.53 o
-4 6 5 814.27 837.60 7.49 o
-6 4 5 838.95 825.14 6.63 o
-3 6 5 19.57 32.96 6.62 o
3 3 5 19.65 20.01 6.33 o
-2 6 5 436.51 450.94 6.94 o
2 4 5 437.34 418.17 6.80 o
-1 6 5 1483.01 1513.37 8.52 o
1 5 5 1496.78 1498.38 7.65 o
0 6 5 42.67 46.52 7.63 o
-7 7 5 98.59 100.16 7.93 o
-6 7 5 486.38 463.42 7.78 o
-7 6 5 462.26 484.90 7.49 o
-5 7 5 217.01 213.61 7.35 o
-7 5 5 216.45 215.48 6.77 o
-4 7 5 100.66 106.44 7.20 o
-7 4 5 105.77 107.60 6.48 o
-3 7 5 155.99 153.91 8.49 o
3 4 5 146.63 170.03 6.77 o
-2 7 5 191.52 174.61 7.64 o
2 5 5 191.99 185.13 7.64 o
-1 7 5 313.13 292.27 8.08 o
1 6 5 315.15 305.73 8.37 o
0 7 5 243.12 240.08 9.79 o
-8 8 5 1359.04 1365.66 9.66 o
-7 8 5 75.31 74.05 7.92 o
-8 7 5 75.04 78.23 8.36 o
-6 8 5 804.79 802.59 8.84 o
-8 6 5 812.08 812.72 8.40 o
-5 8 5 1970.95 1934.91 10.11 o
-8 5 5 1962.07 1961.10 8.66 o
-4 8 5 122.90 112.03 9.07 o
4 4 5 122.80 115.92 7.49 o
-3 8 5 1287.14 1223.55 9.88 o
3 5 5 1286.95 1252.68 9.44 o
-2 8 5 1383.58 1334.51 10.67 o
2 6 5 1353.37 1393.09 9.80 o
-1 8 5 178.40 159.62 9.79 o
1 7 5 177.89 176.47 8.64 o
0 8 5 783.93 761.06 9.99 o
-9 9 5 18.60 18.86 10.22 <
-8 9 5 609.44 647.69 9.97 o
-9 8 5 611.85 613.22 9.97 o
-7 9 5 575.00 601.95 9.37 o
-9 7 5 591.21 589.69 9.22 o
-6 9 5 71.77 75.86 10.08 o
-9 6 5 71.36 70.68 8.49 o
-5 9 5 426.00 425.39 9.83 o
-9 5 5 416.80 411.57 8.81 o
-4 9 5 780.76 810.16 10.51 o
4 5 5 820.86 787.23 9.94 o
-3 9 5 39.66 41.90 10.37 o
3 6 5 41.00 43.91 9.36 o
-2 9 5 440.67 448.14 12.41 o
2 7 5 439.15 437.28 10.96 o
-1 9 5 962.47 1000.81 10.67 o
1 8 5 982.65 965.88 11.10 o
0 9 5 42.11 43.76 10.36 o
-8 10 5 44.45 52.83 12.09 o
-10 8 5 45.44 50.09 14.68 o
-7 10 5 148.06 146.83 11.66 o
-10 7 5 145.86 151.58 10.36 o
-6 10 5 248.46 211.22 11.23 o
-10 6 5 232.94 246.36 10.51 o
-5 10 5 19.58 44.05 11.37 o
5 5 5 19.07 30.52 10.22 <
-4 10 5 159.45 161.07 11.53 o
4 6 5 161.60 176.64 10.52 o
-3 10 5 82.84 74.17 13.11 o
3 7 5 79.16 83.39 11.67 o
-2 10 5 34.49 43.91 16.12 <
2 8 5 33.65 61.61 14.97 o
0 0 6 1069.37 1004.76 10.72 o
-1 1 6 5.01 21.88 5.61 o
0 1 6 13.00 8.64 5.47 <
-2 2 6 304.26 301.84 6.20 o
-1 2 6 3200.81 3188.77 7.77 o
1 1 6 3158.25 3266.51 8.66 o
0 2 6 224.33 214.61 6.35 o
-3 3 6 3259.73 3185.99 7.74 o
-2 3 6 140.85 144.84 5.90 o
-3 2 6 139.71 129.72 6.33 o
-1 3 6 85.21 93.50 5.62 o
1 2 6 86.28 91.49 6.20 o
0 3 6 2945.71 2899.35 7.92 o
-4 4 6 59.06 57.73 5.76 o
-3 4 6 317.58 307.50 6.48 o
-4 3 6 321.14 321.76 6.05 o
-2 4 6 1041.94 1131.28 7.24 o
2 2 6 1068.81 1014.88 6.80 o
-1 4 6 206.18 209.12 6.06 o
1 3 6 203.94 206.52 6.06 o
0 4 6 56.63 53.56 6.05 o
-5 5 6 41.92 47.65 6.62 o
-4 5 6 1218.08 1182.73 7.39 o
-5 4 6 1201.96 1229.18 6.66 o
-3 5 6 47.27 50.26 6.62 o
-5 3 6 48.78 53.00 5.90 o
-2 5 6 95.66 84.93 6.62 o
2 3 6 93.99 98.03 5.76 o
-1 5 6 1324.95 1274.03 7.23 o
1 4 6 1304.45 1337.21 7.38 o
0 5 6 34.83 41.03 6.48 o
-6 6 6 810.76 820.59 7.37 o
-5 6 6 76.51 81.26 7.35 o
-6 5 6 74.46 77.23 6.05 o
-4 6 6 161.60 163.83 7.20 o
-6 4 6 157.36 160.66 6.48 o
-3 6 6 647.89 657.87 7.22 o
3 3 6 644.24 650.10 6.64 o
-2 6 6 89.09 92.34 6.91 o
2 4 6 91.79 86.29 6.63 o
-1 6 6 182.47 172.00 7.63 o
1 5 6 185.99 189.56 7.20 o
0 6 6 857.36 865.87 7.94 o
-7 7 6 93.69 93.71 7.49 o
-6 7 6 157.47 163.66 8.06 o
-7 6 6 156.76 162.66 7.20 o
-5 7 6 1151.22 1156.39 8.67 o
-7 5 6 1169.70 1125.28 7.66 o
-4 7 6 78.55 87.52 7.92 o
-7 4 6 76.44 85.65 6.62 o
-3 7 6 47.03 47.23 7.49 o
3 4 6 49.21 48.24 6.91 o
-2 7 6 1035.75 1069.93 8.39 o
2 5 6 1054.29 1025.07 8.10 o
-1 7 6 74.84 82.25 7.92 o
1 6 6 73.69 82.39 7.92 o
0 7 6 56.38 46.08 8.78 o
-8 8 6 100.62 102.12 8.93 o
-7 8 6 293.86 292.27 8.64 o
-8 7 6 281.20 305.26 8.64 o
-6 8 6 69.80 73.27 8.49 o
-8 6 6 73.41 69.24 7.49 o
-5 8 6 57.55 77.31 7.92 o
-8 5 6 57.92 62.33 7.63 o
-4 8 6 914.33 872.21 8.95 o
4 4 6 895.00 930.12 8.23 o
-3 8 6 54.87 61.90 8.78 o
3 5 6 55.89 53.41 8.06 o
-2 8 6 42.06 42.91 8.78 o
2 6 6 39.24 36.71 9.21 o
-1 8 6 259.69 238.74 9.65 o
1 7 6 252.24 284.01 9.65 o
0 8 6 162.82 158.79 9.79 o
-8 9 6 46.15 46.07 9.79 o
-9 8 6 47.55 46.51 9.36 o
-7 9 6 163.54 170.57 9.50 o
-9 7 6 165.01 175.60 9.50 o
-6 9 6 310.05 324.90 9.94 o
-9 6 6 313.10 309.33 8.93 o
-5 9 6 70.59 71.28 9.22 o
-9 5 6 67.47 75.03 8.78 o
-4 9 6 119.55 110.12 9.50 o
4 5 6 121.36 121.93 9.50 o
-3 9 6 298.28 283.58 9.80 o
3 6 6 299.30 301.29 10.09 o
-2 9 6 72.54 77.35 10.52 o
2 7 6 72.37 82.10 10.51 o
-1 9 6 86.94 81.90 10.80 o
1 8 6 82.72 90.40 10.80 o
-6 10 6 31.19 35.99 16.13 <
-10 6 6 30.07 23.90 21.45 <
-5 10 6 131.05 144.00 10.37 o
5 5 6 138.17 142.55 12.24 o
-4 10 6 72.66 83.48 13.53 o
4 6 6 73.47 87.08 21.30 o
0 0 7 8.86 29.51 9.79 o
-1 1 7 34.27 43.63 5.76 o
0 1 7 52.77 76.44 5.76 o
-2 2 7 247.48 250.99 6.62 o
-1 2 7 24.40 24.90 5.61 o
1 1 7 24.50 29.37 6.48 o
0 2 7 151.24 151.36 6.49 o
-3 3 7 74.20 73.00 6.05 o
-2 3 7 565.65 548.70 6.24 o
-3 2 7 568.00 575.46 6.82 o
-1 3 7 1272.34 1260.28 6.62 o
1 2 7 1257.60 1256.14 7.20 o
0 3 7 79.97 80.63 6.05 o
-4 4 7 520.01 493.63 6.37 o
-3 4 7 697.12 714.25 7.20 o
-4 3 7 719.21 688.91 6.48 o
-2 4 7 23.00 36.42 6.62 o
2 2 7 22.90 36.71 6.05 o
-1 4 7 317.17 315.30 6.51 o
1 3 7 309.47 312.80 6.36 o
0 4 7 961.33 967.66 7.06 o
-5 5 7 44.53 47.82 6.63 o
-4 5 7 52.38 57.87 6.91 o
-5 4 7 52.70 52.25 6.19 o
-3 5 7 129.38 125.40 6.77 o
-5 3 7 130.50 121.22 5.90 o
-2 5 7 84.37 93.33 7.06 o
2 3 7 88.41 84.54 6.05 o
-1 5 7 33.32 27.07 6.62 o
1 4 7 33.26 31.10 6.91 o
0 5 7 113.14 125.08 6.76 o
-6 6 7 9.10 18.14 7.48 <
-5 6 7 86.64 87.52 7.77 o
-6 5 7 93.77 81.19 6.62 o
-4 6 7 343.66 329.10 7.50 o
-6 4 7 334.20 342.80 6.49 o
-3 6 7 7.04 3.60 7.05 <
3 3 7 7.20 12.67 6.48 <
-2 6 7 370.33 370.65 7.35 o
2 4 7 371.97 370.67 6.77 o
-1 6 7 66.79 75.31 7.49 o
1 5 7 58.19 66.95 7.06 o
0 6 7 12.29 13.96 7.63 <
-7 7 7 598.36 590.12 8.68 o
-6 7 7 869.84 867.20 9.22 o
-7 6 7 873.98 869.78 8.35 o
-5 7 7 50.18 53.55 8.21 o
-7 5 7 50.79 48.23 7.20 o
-4 7 7 423.50 405.91 8.09 o
-7 4 7 420.94 422.95 7.65 o
-3 7 7 696.56 686.76 8.79 o
3 4 7 694.99 714.14 7.78 o
-2 7 7 52.20 54.99 7.92 o
2 5 7 51.00 55.86 7.34 o
-1 7 7 479.23 471.71 8.82 o
1 6 7 479.19 474.59 8.53 o
0 7 7 1077.56 1048.77 9.65 o
-8 8 7 86.17 88.60 9.51 o
-7 8 7 13.54 26.34 8.92 <
-8 7 7 13.26 23.46 8.92 <
-6 8 7 198.03 205.34 8.79 o
-8 6 7 192.02 191.35 7.92 o
-5 8 7 76.93 84.67 8.78 o
-8 5 7 82.79 79.34 7.78 o
-4 8 7 3.81 8.35 8.78 <
4 4 7 3.88 -0.43 7.92 <
-3 8 7 102.52 102.07 8.64 o
3 5 7 101.46 108.11 8.49 o
-2 8 7 263.58 283.26 9.36 o
2 6 7 279.01 260.65 9.22 o
-1 8 7 25.56 38.00 9.93 o
1 7 7 26.19 32.53 10.22 o
0 8 7 195.14 174.02 11.80 o
-6 9 7 5.76 15.98 9.79 <
-9 6 7 5.93 24.04 9.50 <
-5 9 7 453.78 452.52 9.97 o
-9 5 7 460.74 459.93 9.39 o
-4 9 7 824.29 786.77 10.52 o
4 5 7 806.83 798.01 10.08 o
-3 9 7 13.05 15.83 10.08 <
3 6 7 13.13 19.72 11.08 <
0 0 8 1795.46 1813.41 12.19 o
-1 1 8 22.88 19.72 5.90 o
0 1 8 8.88 2.74 5.90 <
-2 2 8 280.07 275.77 6.77 o
-1 2 8 1706.67 1790.41 7.11 o
1 1 8 1734.00 1709.43 7.83 o
0 2 8 181.58 179.32 7.21 o
-3 3 8 722.90 739.13 6.64 o
-2 3 8 148.33 158.33 6.33 o
-3 2 8 150.14 146.24 6.77 o
-1 3 8 67.34 72.60 6.34 o
1 2 8 66.64 73.18 6.91 o
0 3 8 743.45 770.75 6.64 o
-4 4 8 34.28 42.61 6.77 o
-3 4 8 167.68 162.70 7.06 o
-4 3 8 164.09 157.23 6.48 o
-2 4 8 1521.84 1478.67 7.96 o
2 2 8 1501.69 1520.52 7.39 o
-1 4 8 119.41 127.91 6.63 o
1 3 8 121.75 129.79 6.63 o
0 4 8 22.31 25.62 6.62 o
-5 5 8 25.32 20.44 7.77 <
-4 5 8 1026.66 1050.36 8.09 o
-5 4 8 1044.43 1021.45 6.93 o
-3 5 8 65.10 61.19 7.49 o
-5 3 8 63.30 69.82 6.48 o
-2 5 8 60.52 61.19 7.49 o
2 3 8 63.11 67.81 6.62 o
-1 5 8 1007.84 1042.01 8.09 o
1 4 8 1023.86 1045.32 7.80 o
0 5 8 30.19 37.57 7.20 o
-6 6 8 327.11 323.30 7.92 o
-5 6 8 143.82 139.29 8.64 o
-6 5 8 144.52 139.29 7.49 o
-4 6 8 269.20 275.71 7.92 o
-6 4 8 270.55 261.46 7.05 o
-3 6 8 640.47 642.89 8.08 o
3 3 8 640.95 637.55 7.50 o
-2 6 8 156.48 167.46 8.07 o
2 4 8 155.20 160.68 7.06 o
-1 6 8 184.32 186.90 8.21 o
1 5 8 183.24 180.57 7.92 o
0 6 8 295.48 289.80 8.65 o
-7 7 8 4.53 16.55 8.78 <
-6 7 8 32.52 35.42 8.93 o
-7 6 8 32.29 34.84 8.35 o
-5 7 8 589.95 588.24 9.09 o
-7 5 8 574.69 625.52 8.08 o
-4 7 8 59.85 58.61 8.50 o
-7 4 8 61.39 62.21 7.34 o
-3 7 8 112.76 111.99 8.78 o
3 4 8 111.30 99.18 7.63 o
-2 7 8 582.34 566.35 9.23 o
2 5 8 569.04 593.54 8.22 o
-1 7 8 81.73 91.68 9.21 o
1 6 8 82.72 83.62 8.35 o
0 7 8 2.55 8.06 9.36 <
-6 8 8 91.97 90.84 9.36 o
-8 6 8 88.31 91.42 9.50 o
-5 8 8 27.31 38.15 9.36 o
-8 5 8 26.91 24.47 8.64 <
-4 8 8 487.74 519.06 9.95 o
4 4 8 501.48 472.15 8.79 o
-3 8 8 38.32 39.01 9.64 o
3 5 8 37.17 42.32 8.92 o
-2 8 8 78.78 69.97 9.79 o
2 6 8 81.00 71.85 9.50 o
0 0 9 5.39 -12.09 10.94 <
-1 1 9 6.30 18.28 6.33 <
0 1 9 2.42 2.59 6.33 <
-2 2 9 433.65 449.93 7.34 o
-1 2 9 6.20 3.74 6.48 <
1 1 9 6.21 3.17 7.05 <
0 2 9 169.36 171.54 7.65 o
-3 3 9 28.91 36.70 6.76 o
-2 3 9 250.09 255.50 6.78 o
-3 2 9 242.97 234.26 7.65 o
-1 3 9 538.41 556.27 6.77 o
1 2 9 556.15 527.48 6.91 o
0 3 9 12.94 15.55 6.91 <
-4 4 9 78.41 83.63 7.34 o
-3 4 9 266.16 267.86 7.78 o
-4 3 9 254.99 265.70 7.06 o
-2 4 9 13.57 14.39 7.48 <
2 2 9 13.64 12.67 6.48 <
-1 4 9 189.93 189.19 7.20 o
1 3 9 195.46 181.42 7.06 o
0 4 9 45.31 50.39 7.49 o
-5 5 9 313.73 317.79 8.78 o
-4 5 9 17.58 13.82 8.35 <
-5 4 9 17.59 13.82 6.76 <
-3 5 9 162.30 160.99 8.07 o
-5 3 9 162.04 163.73 6.92 o
-2 5 9 291.39 283.20 8.35 o
2 3 9 289.69 292.55 7.34 o
-1 5 9 11.30 12.95 8.20 <
1 4 9 11.28 16.84 7.48 <
0 5 9 195.75 199.91 7.93 o
-6 6 9 3.59 15.26 8.78 <
-5 6 9 219.28 233.98 8.79 o
-6 5 9 216.43 226.92 7.78 o
-4 6 9 198.48 210.77 8.64 o
-6 4 9 202.73 200.12 7.77 o
-3 6 9 9.37 10.51 8.49 <
3 3 9 9.21 7.48 7.48 <
-2 6 9 125.05 129.65 8.79 o
2 4 9 123.45 133.39 7.92 o
-1 6 9 372.18 377.11 9.22 o
1 5 9 373.91 362.14 8.06 o
0 6 9 8.63 12.09 9.36 <
-5 7 9 2.50 4.61 9.21 <
-7 5 9 2.47 5.90 8.64 <
-4 7 9 106.87 118.17 9.79 o
-7 4 9 108.84 106.37 8.49 o
-3 7 9 44.71 35.71 9.50 o
3 4 9 43.71 50.54 8.35 o
-2 7 9 4.93 16.70 9.64 <
2 5 9 5.20 5.47 8.78 <
0 0 10 1484.75 1559.69 13.60 o
-1 1 10 306.57 304.46 7.49 o
0 1 10 144.79 148.04 7.06 o
-2 2 10 262.85 256.09 8.07 o
-1 2 10 900.90 860.83 7.65 o
1 1 10 878.41 899.69 8.38 o
0 2 10 315.69 320.80 7.35 o
-3 3 10 1123.92 1154.47 8.39 o
-2 3 10 296.06 294.07 8.49 o
-3 2 10 294.80 284.28 7.63 o
-1 3 10 121.61 130.01 7.35 o
1 2 10 122.35 115.31 7.50 o
0 3 10 1210.55 1253.21 8.38 o
-4 4 10 319.59 319.81 8.49 o
-3 4 10 292.72 295.08 9.08 o
-4 3 10 294.51 299.98 8.07 o
-2 4 10 726.51 751.30 8.80 o
2 2 10 744.67 724.49 7.65 o
-1 4 10 295.85 273.75 8.64 o
1 3 10 294.65 288.73 7.78 o
0 4 10 123.30 131.76 8.22 o
-5 5 10 95.95 98.71 10.23 o
-4 5 10 598.27 553.58 9.37 o
-5 4 10 580.57 602.52 8.07 o
-3 5 10 213.14 210.04 9.07 o
-5 3 10 215.57 218.24 7.77 o
-2 5 10 118.44 127.21 8.93 o
2 3 10 117.17 120.44 8.07 o
-1 5 10 531.68 506.98 9.38 o
1 4 10 518.67 525.22 8.80 o
0 5 10 249.39 241.66 9.07 o
-3 6 10 617.34 649.62 21.78 o
3 3 10 617.86 604.61 15.43 o
0 0 11 4.66 18.14 13.67 <
-1 1 11 61.28 74.46 8.06 o
0 1 11 126.93 139.19 8.78 o
-2 2 11 48.76 54.70 8.06 o
-1 2 11 11.32 6.48 8.06 <
1 1 11 11.33 17.42 8.78 <
0 2 11 33.49 24.91 8.06 o
-3 3 11 9.28 4.75 8.78 <
-2 3 11 57.00 57.75 9.50 o
-3 2 11 58.42 62.21 8.64 o
-1 3 11 118.77 107.81 9.21 o
1 2 11 116.72 118.61 8.35 o
0 3 11 10.65 5.61 8.64 <
2 2 11 28.76 37.86 21.02 <
loop_
_twin_individual_id
_twin_individual_mass_fraction_refined
_twin_individual_twin_matrix_11
_twin_individual_twin_matrix_12
_twin_individual_twin_matrix_13
_twin_individual_twin_matrix_21
_twin_individual_twin_matrix_22
_twin_individual_twin_matrix_23
_twin_individual_twin_matrix_31
_twin_individual_twin_matrix_32
_twin_individual_twin_matrix_33
1 0.722(2) 1 0 0 0 1 0 0 0 1
2 0.278(2) -1 0 0 0 -1 0 0 0 1
