#------------------------------------------------------------------------------
#$Date: 2020-02-29 01:17:54 +0200 (Sat, 29 Feb 2020) $
#$Revision: 248531 $
#$URL: file:///home/coder/svn-repositories/cod/cif/4/00/34/4003495.cif $
#------------------------------------------------------------------------------
#
# This file is available in the Crystallography Open Database (COD),
# http://www.crystallography.net/
#
# All data on this site have been placed in the public domain by the
# contributors.
#
data_4003495
loop_
_publ_author_name
'Han, Shujuan'
'Mutailipu, Miriding'
'Tudi, Abudukadi'
'Yang, Zhihua'
'Pan, Shilie'
_publ_section_title
;
 PbB5O7F3: A High-Performing Short-Wavelength Nonlinear Optical Material
;
_journal_name_full               'Chemistry of Materials'
_journal_paper_doi               10.1021/acs.chemmater.0c00150
_journal_year                    2020
_chemical_formula_moiety         '0.25(B20 F12 O28 Pb4)'
_chemical_formula_sum            'B5 F3 O7 Pb'
_chemical_formula_weight         430.24
_space_group_crystal_system      orthorhombic
_space_group_IT_number           36
_space_group_name_Hall           'C 2c -2'
_space_group_name_H-M_alt        'C m c 21'
_audit_creation_date             2019-12-11
_audit_creation_method
; 
Olex2 1.2 
(compiled 2015.01.26 svn.r3150 for OlexSys, GUI svn.r1) 
;
_cell_angle_alpha                90
_cell_angle_beta                 90
_cell_angle_gamma                90
_cell_formula_units_Z            4
_cell_length_a                   10.025(10)
_cell_length_b                   8.764(9)
_cell_length_c                   8.073(8)
_cell_measurement_reflns_used    1043
_cell_measurement_temperature    296(2)
_cell_measurement_theta_max      27.41
_cell_measurement_theta_min      3.99
_cell_volume                     709.3(12)
_computing_cell_refinement       'Bruker SMART'
_computing_data_collection       'Bruker SMART'
_computing_data_reduction        'Bruker SAINT'
_computing_molecular_graphics    'Olex2 (Dolomanov et al., 2009)'
_computing_publication_material  'Olex2 (Dolomanov et al., 2009)'
_computing_structure_refinement  'ShelXL (Sheldrick, 2008)'
_computing_structure_solution    'Bruker SHELXTL'
_diffrn_ambient_temperature      296.15
_diffrn_measured_fraction_theta_full 0.986
_diffrn_measured_fraction_theta_max 0.989
_diffrn_measurement_device_type  'CCD area detector'
_diffrn_measurement_method       'phi and omega scans'
_diffrn_radiation_monochromator  graphite
_diffrn_radiation_type           MoK\a
_diffrn_radiation_wavelength     0.71073
_diffrn_reflns_av_R_equivalents  0.0361
_diffrn_reflns_av_unetI/netI     0.0560
_diffrn_reflns_Laue_measured_fraction_full 0.986
_diffrn_reflns_Laue_measured_fraction_max 0.989
_diffrn_reflns_limit_h_max       12
_diffrn_reflns_limit_h_min       -12
_diffrn_reflns_limit_k_max       11
_diffrn_reflns_limit_k_min       -10
_diffrn_reflns_limit_l_max       9
_diffrn_reflns_limit_l_min       -10
_diffrn_reflns_number            2143
_diffrn_reflns_point_group_measured_fraction_full 0.954
_diffrn_reflns_point_group_measured_fraction_max 0.944
_diffrn_reflns_theta_full        25.242
_diffrn_reflns_theta_max         27.509
_diffrn_reflns_theta_min         3.087
_exptl_absorpt_coefficient_mu    23.862
_exptl_absorpt_correction_T_max  0.7455
_exptl_absorpt_correction_T_min  0.4236
_exptl_absorpt_correction_type   numerical
_exptl_absorpt_process_details
; 
SADABS-2014/5 (Bruker,2014/5) was used for absorption correction. 
wR2(int) was 0.1221 before and 0.0562 after correction. 
The Ratio of minimum to maximum transmission is 0.5682. 
The \l/2 correction factor is 0.00150. 
;
_exptl_crystal_density_diffrn    4.029
_exptl_crystal_description       block
_exptl_crystal_F_000             760
_refine_diff_density_max         1.481
_refine_diff_density_min         -1.422
_refine_diff_density_rms         0.212
_refine_ls_abs_structure_details
; 
 Flack x determined using 329 quotients [(I+)-(I-)]/[(I+)+(I-)] 
 (Parsons, Flack and Wagner, Acta Cryst. B69 (2013) 249-259). 
;
_refine_ls_abs_structure_Flack   0.016(16)
_refine_ls_extinction_method     none
_refine_ls_goodness_of_fit_ref   0.948
_refine_ls_hydrogen_treatment    undef
_refine_ls_matrix_type           full
_refine_ls_number_parameters     79
_refine_ls_number_reflns         821
_refine_ls_number_restraints     13
_refine_ls_restrained_S_all      0.942
_refine_ls_R_factor_all          0.0261
_refine_ls_R_factor_gt           0.0252
_refine_ls_shift/su_max          0.000
_refine_ls_shift/su_mean         0.000
_refine_ls_structure_factor_coef Fsqd
_refine_ls_weighting_details     'w=1/[\s^2^(Fo^2^)] where P=(Fo^2^+2Fc^2^)/3'
_refine_ls_weighting_scheme      calc
_refine_ls_wR_factor_gt          0.0418
_refine_ls_wR_factor_ref         0.0422
_reflns_Friedel_coverage         0.777
_reflns_Friedel_fraction_full    0.916
_reflns_Friedel_fraction_max     0.891
_reflns_number_gt                795
_reflns_number_total             821
_reflns_threshold_expression     'I > 2\s(I)'
_iucr_refine_instructions_details
; 
  
    1.res created by SHELXL-2014/7 
  
TITL 1_b.res in Cmc2(1) 
REM Old TITL 1_b.res in Cmc2(1) 
REM SHELXT solution in Cmc2(1): R1 0.098, Rweak 0.014, Alpha 0.014 
REM <I/s> 0.203 for 27 systematic absences, Orientation as input 
REM Flack x = 0.496 ( 0.043 ) from 301 Parsons' quotients 
REM Formula found by SHELXT: Sr B8 
CELL 0.71073 10.0254 8.7645 8.0726 90 90 90 
ZERR 4 0.0104 0.0093 0.0084 0 0 0 
LATT -7 
SYMM -X,-Y,0.5+Z 
SYMM +X,-Y,0.5+Z 
SYMM -X,+Y,+Z 
SFAC B F O Pb 
UNIT 20 12 28 4 
ISOR 0.005 0.01 O1 O4 
  
L.S. 50 
PLAN  2 
TEMP 23 
LIST 6 
MORE -1 
BOND $H 
CONF 
fmap 2 
acta 
OMIT 0 2 0 
OMIT 0 4 0 
OMIT 0 6 0 
REM <olex2.extras> 
REM <HklSrc "%.\\1.hkl"> 
REM </olex2.extras> 
  
WGHT    0.000000 
FVAR       0.26935 
PB1   4    0.500000    0.731313    0.606941    10.50000    0.00671    0.01352 = 
         0.01017   -0.00110    0.00000    0.00000 
B1    1    0.363589    1.143380    0.526918    11.00000    0.00513    0.02226 = 
         0.00662   -0.00346   -0.00140    0.00192 
B2    1    0.267193    1.260463    0.783278    11.00000    0.00624    0.01807 = 
         0.00780    0.00224   -0.00063    0.00463 
B3    1    0.500000    0.322767    0.717678    10.50000    0.01318    0.02077 = 
         0.00308   -0.00282    0.00000    0.00000 
O1    3    0.258081    1.179631    0.640396    11.00000    0.00697    0.01587 = 
         0.00516   -0.00404    0.00061   -0.00141 
O2    3    0.652518    0.780045    0.871715    11.00000    0.00578    0.02991 = 
         0.00915   -0.00505    0.00104    0.00183 
O3    3    0.385826    0.324870    0.825818    11.00000    0.00396    0.01926 = 
         0.01173   -0.00990   -0.00004   -0.00045 
O4    3    0.500000    0.186682    0.600229    10.50000    0.00579    0.00658 = 
         0.00406    0.00146    0.00000    0.00000 
F1    2    0.367086    0.984896    0.502759    11.00000    0.01054    0.01404 = 
         0.03460   -0.00649   -0.00737   -0.00227 
F2    2    0.500000    0.456189    0.616432    10.50000    0.03674    0.01496 = 
         0.01786    0.01167    0.00000    0.00000 
HKLF 4 
  
REM  1_b.res in Cmc2(1) 
REM R1 =  0.0252 for     795 Fo > 4sig(Fo)  and  0.0261 for all     821 data 
REM     79 parameters refined using     13 restraints 
  
END 
  
WGHT      0.0000      0.0000 
  
REM Highest difference peak  1.481,  deepest hole -1.422,  1-sigma level  0.212 
Q1    1   0.5000  0.7306  0.4954  10.50000  0.05    1.48 
Q2    1   0.5000  0.7309  0.7196  10.50000  0.05    1.46 
  
REM The information below was added by Olex2. 
REM 
REM R1 = 0.0252 for 795 Fo > 4sig(Fo) and 0.0261 for all 2230 data 
REM n/a parameters refined using n/a restraints 
REM Highest difference peak 1.48, deepest hole -1.42 
REM Mean Shift 0, Max Shift 0.000. 
  
REM +++ Tabular Listing of Refinement Information +++ 
REM R1_all = 0.0261 
REM R1_gt = 0.0252 
REM wR_ref = 0.0422 
REM GOOF = 0.948 
REM Shift_max = 0.000 
REM Shift_mean = 0 
REM Reflections_all = 2230 
REM Reflections_gt = 795 
REM Parameters = n/a 
REM Hole = -1.42 
REM Peak = 1.48 
REM Flack = 0.016(16) 
  
;
_cod_data_source_file            cm0c00150_si_002.cif
_cod_data_source_block           1
_cod_depositor_comments
;
The following automatic conversions were performed:

data item '_exptl_absorpt_correction_type' value 'Numerical' was
changed to 'numerical' in accordance with the
/home/data/users/saulius/crontab/automatic-downloads/rss-feeds/ACS/lib/dictionaries/cif_core.dic
dictionary named 'cif_core.dic' version 2.4.2 last updated on
2011-04-26.

Automatic conversion script
Id: cif_fix_values 7556 2019-12-06 15:28:31Z antanas 
;
_cod_original_cell_volume        709.3(13)
_cod_database_code               4003495
_shelx_space_group_comment
; 
The symmetry employed for this shelxl refinement is uniquely defined 
by the following loop, which should always be used as a source of 
symmetry information in preference to the above space-group names. 
They are only intended as comments. 
;
_olex2_refinement_description
; 
1. Uiso/Uaniso restraints and constraints 
Uanis(O1) \\sim Ueq, Uanis(O4) \\sim Ueq: with sigma of 0.005 and sigma for 
terminal atoms of 0.01 
;
_shelx_shelxl_version_number     2014/7
_olex2_submission_special_instructions 'No special instructions were received'
loop_
_space_group_symop_operation_xyz
'x, y, z'
'-x, -y, z+1/2'
'x, -y, z+1/2'
'-x, y, z'
'x+1/2, y+1/2, z'
'-x+1/2, -y+1/2, z+1/2'
'x+1/2, -y+1/2, z+1/2'
'-x+1/2, y+1/2, z'
loop_
_atom_site_label
_atom_site_type_symbol
_atom_site_fract_x
_atom_site_fract_y
_atom_site_fract_z
_atom_site_U_iso_or_equiv
_atom_site_adp_type
_atom_site_occupancy
_atom_site_site_symmetry_order
_atom_site_calc_flag
_atom_site_refinement_flags_posn
_atom_site_refinement_flags_adp
_atom_site_refinement_flags_occupancy
_atom_site_disorder_assembly
_atom_site_disorder_group
Pb1 Pb 0.5000 0.73131(5) 0.60694(17) 0.01013(14) Uani 1 2 d S T P . .
B1 B 0.3636(11) 1.1434(15) 0.5269(14) 0.011(2) Uani 1 1 d . . . . .
B2 B 0.2672(12) 1.2605(15) 0.7833(14) 0.011(2) Uani 1 1 d . . . . .
B3 B 0.5000 0.323(2) 0.7177(19) 0.012(4) Uani 1 2 d S T P . .
O1 O 0.2581(6) 1.1796(8) 0.6404(7) 0.0093(18) Uani 1 1 d . U . . .
O2 O 0.6525(8) 0.7800(10) 0.8717(9) 0.0149(17) Uani 1 1 d . . . . .
O3 O 0.3858(7) 0.3249(10) 0.8258(8) 0.0117(16) Uani 1 1 d . . . . .
O4 O 0.5000 0.1867(8) 0.600(3) 0.0055(15) Uani 1 2 d S TU P . .
F1 F 0.3671(6) 0.9849(7) 0.5028(8) 0.0197(15) Uani 1 1 d . . . . .
F2 F 0.5000 0.4562(9) 0.616(2) 0.023(2) Uani 1 2 d S T P . .
loop_
_atom_site_aniso_label
_atom_site_aniso_U_11
_atom_site_aniso_U_22
_atom_site_aniso_U_33
_atom_site_aniso_U_23
_atom_site_aniso_U_13
_atom_site_aniso_U_12
Pb1 0.0067(2) 0.0135(3) 0.0102(2) -0.0011(10) 0.000 0.000
B1 0.005(5) 0.022(7) 0.007(5) -0.003(5) -0.001(4) 0.002(4)
B2 0.006(6) 0.018(7) 0.008(5) 0.002(5) -0.001(4) 0.005(5)
B3 0.013(9) 0.021(11) 0.003(7) -0.003(6) 0.000 0.000
O1 0.007(3) 0.016(4) 0.005(4) -0.004(2) 0.001(2) -0.001(2)
O2 0.006(4) 0.030(6) 0.009(4) -0.005(4) 0.001(3) 0.002(4)
O3 0.004(4) 0.019(5) 0.012(4) -0.010(3) 0.000(3) 0.000(3)
O4 0.006(3) 0.007(3) 0.004(3) 0.001(6) 0.000 0.000
F1 0.011(3) 0.014(4) 0.035(4) -0.006(3) -0.007(3) -0.002(2)
F2 0.037(5) 0.015(4) 0.018(5) 0.012(7) 0.000 0.000
loop_
_atom_type_symbol
_atom_type_description
_atom_type_scat_dispersion_real
_atom_type_scat_dispersion_imag
_atom_type_scat_source
B B 0.0013 0.0007 'International Tables Vol C Tables 4.2.6.8 and 6.1.1.4'
F F 0.0171 0.0103 'International Tables Vol C Tables 4.2.6.8 and 6.1.1.4'
O O 0.0106 0.0060 'International Tables Vol C Tables 4.2.6.8 and 6.1.1.4'
Pb Pb -3.3944 10.1111 'International Tables Vol C Tables 4.2.6.8 and 6.1.1.4'
loop_
_geom_angle_atom_site_label_1
_geom_angle_atom_site_label_2
_geom_angle_atom_site_label_3
_geom_angle
_geom_angle_site_symmetry_1
_geom_angle_site_symmetry_3
_geom_angle_publ_flag
O1 Pb1 O1 157.0(3) 8_545 5_545 ?
O1 Pb1 O2 51.9(2) 8_545 4_655 ?
O1 Pb1 O2 51.9(2) 5_545 . ?
O1 Pb1 O2 120.5(2) 5_545 4_655 ?
O1 Pb1 O2 120.5(2) 8_545 . ?
O1 Pb1 F1 72.1(2) 8_545 . ?
O1 Pb1 F1 130.6(2) 8_545 4_655 ?
O1 Pb1 F1 72.1(2) 5_545 4_655 ?
O1 Pb1 F1 130.6(2) 5_545 . ?
O2 Pb1 O2 70.1(3) 4_655 . ?
O2 Pb1 F1 80.6(2) . 4_655 ?
O2 Pb1 F1 113.4(2) 4_655 4_655 ?
O2 Pb1 F1 113.4(2) . . ?
O2 Pb1 F1 80.6(2) 4_655 . ?
O3 Pb1 O1 119.4(2) 3_564 5_545 ?
O3 Pb1 O1 67.9(2) 2_664 5_545 ?
O3 Pb1 O1 119.4(2) 2_664 8_545 ?
O3 Pb1 O1 67.9(2) 3_564 8_545 ?
O3 Pb1 O2 171.2(2) 3_564 . ?
O3 Pb1 O2 118.7(2) 3_564 4_655 ?
O3 Pb1 O2 171.2(2) 2_664 4_655 ?
O3 Pb1 O2 118.7(2) 2_664 . ?
O3 Pb1 O3 52.5(3) 3_564 2_664 ?
O3 Pb1 F1 70.6(2) 2_664 4_655 ?
O3 Pb1 F1 70.6(2) 3_564 . ?
O3 Pb1 F1 95.8(2) 2_664 . ?
O3 Pb1 F1 95.8(2) 3_564 4_655 ?
F1 Pb1 F1 58.6(3) . 4_655 ?
F2 Pb1 O1 79.94(17) . 5_545 ?
F2 Pb1 O1 79.94(17) . 8_545 ?
F2 Pb1 O2 97.7(4) . 4_655 ?
F2 Pb1 O2 97.7(4) . . ?
F2 Pb1 O3 80.7(4) . 2_664 ?
F2 Pb1 O3 80.7(4) . 3_564 ?
F2 Pb1 F1 145.6(2) . . ?
F2 Pb1 F1 145.6(2) . 4_655 ?
O1 B1 O4 110.8(11) . 1_565 ?
O2 B1 O1 111.8(9) 2_674 . ?
O2 B1 O4 108.8(11) 2_674 1_565 ?
F1 B1 O1 109.0(9) . . ?
F1 B1 O2 110.2(9) . 2_674 ?
F1 B1 O4 106.0(8) . 1_565 ?
O1 B2 O2 117.0(10) . 5_455 ?
O1 B2 O3 119.3(9) . 1_565 ?
O3 B2 O2 123.5(10) 1_565 5_455 ?
O3 B3 O3 105.3(11) 4_655 . ?
O3 B3 O4 112.8(10) . . ?
O3 B3 O4 112.8(10) 4_655 . ?
F2 B3 O3 109.7(10) . . ?
F2 B3 O3 109.7(10) . 4_655 ?
F2 B3 O4 106.6(14) . . ?
B1 O1 Pb1 134.0(5) . 5_455 ?
B2 O1 Pb1 93.6(6) . 5_455 ?
B2 O1 B1 127.5(8) . . ?
B1 O2 Pb1 135.5(6) 2_675 . ?
B2 O2 Pb1 92.5(7) 5_545 . ?
B2 O2 B1 127.8(9) 5_545 2_675 ?
B2 O3 Pb1 121.9(7) 1_545 2_665 ?
B2 O3 B3 122.5(9) 1_545 . ?
B3 O3 Pb1 100.2(6) . 2_665 ?
B1 O4 B1 125.6(17) 1_545 4_645 ?
B3 O4 B1 115.6(6) . 1_545 ?
B3 O4 B1 115.6(6) . 4_645 ?
B1 F1 Pb1 141.0(6) . . ?
B3 F2 Pb1 146.9(12) . . ?
loop_
_geom_bond_atom_site_label_1
_geom_bond_atom_site_label_2
_geom_bond_distance
_geom_bond_site_symmetry_2
_geom_bond_publ_flag
Pb1 O1 2.641(7) 8_545 ?
Pb1 O1 2.641(7) 5_545 ?
Pb1 O2 2.663(8) 4_655 ?
Pb1 O2 2.663(8) . ?
Pb1 O3 2.589(8) 3_564 ?
Pb1 O3 2.589(8) 2_664 ?
Pb1 F1 2.724(7) . ?
Pb1 F1 2.724(7) 4_655 ?
Pb1 F2 2.413(8) . ?
B1 O1 1.435(12) . ?
B1 O2 1.430(14) 2_674 ?
B1 O4 1.538(14) 1_565 ?
B1 F1 1.403(15) . ?
B2 O1 1.357(14) . ?
B2 O2 1.364(14) 5_455 ?
B2 O3 1.361(14) 1_565 ?
B3 O3 1.440(11) 4_655 ?
B3 O3 1.440(11) . ?
B3 O4 1.52(2) . ?
B3 F2 1.43(2) . ?
O1 Pb1 2.641(7) 5_455 ?
O2 B1 1.430(14) 2_675 ?
O2 B2 1.364(14) 5_545 ?
O3 Pb1 2.589(8) 2_665 ?
O3 B2 1.361(14) 1_545 ?
O4 B1 1.538(14) 1_545 ?
O4 B1 1.538(14) 4_645 ?
loop_
_geom_torsion_atom_site_label_1
_geom_torsion_atom_site_label_2
_geom_torsion_atom_site_label_3
_geom_torsion_atom_site_label_4
_geom_torsion
_geom_torsion_site_symmetry_1
_geom_torsion_site_symmetry_2
_geom_torsion_site_symmetry_3
_geom_torsion_site_symmetry_4
_geom_torsion_publ_flag
O1 B1 F1 Pb1 -98.8(10) . . . . ?
O2 B1 O1 Pb1 36.1(14) 2_674 . . 5_455 ?
O2 B1 O1 B2 -112.4(11) 2_674 . . . ?
O2 B1 F1 Pb1 138.1(7) 2_674 . . . ?
O2 B2 O1 Pb1 22.3(10) 5_455 . . 5_455 ?
O2 B2 O1 B1 -179.8(10) 5_455 . . . ?
O3 B2 O1 Pb1 -153.7(10) 1_565 . . 5_455 ?
O3 B2 O1 B1 4.2(17) 1_565 . . . ?
O3 B3 O3 Pb1 -12.2(13) 4_655 . . 2_665 ?
O3 B3 O3 B2 -151.0(9) 4_655 . . 1_545 ?
O3 B3 O4 B1 40(2) . . . 1_545 ?
O3 B3 O4 B1 -159.0(12) . . . 4_645 ?
O3 B3 O4 B1 159.0(12) 4_655 . . 1_545 ?
O3 B3 O4 B1 -40(2) 4_655 . . 4_645 ?
O3 B3 F2 Pb1 -57.6(9) 4_655 . . . ?
O3 B3 F2 Pb1 57.6(9) . . . . ?
O4 B1 O1 Pb1 157.6(7) 1_565 . . 5_455 ?
O4 B1 O1 B2 9.1(16) 1_565 . . . ?
O4 B1 F1 Pb1 20.6(15) 1_565 . . . ?
O4 B3 O3 Pb1 111.2(11) . . . 2_665 ?
O4 B3 O3 B2 -27.5(18) . . . 1_545 ?
O4 B3 F2 Pb1 180.000(4) . . . . ?
F1 B1 O1 Pb1 -86.1(10) . . . 5_455 ?
F1 B1 O1 B2 125.4(10) . . . . ?
F2 B3 O3 Pb1 -130.2(9) . . . 2_665 ?
F2 B3 O3 B2 91.1(15) . . . 1_545 ?
F2 B3 O4 B1 -80.6(13) . . . 1_545 ?
F2 B3 O4 B1 80.6(13) . . . 4_645 ?
loop_
_refln_index_h
_refln_index_k
_refln_index_l
_refln_F_squared_meas
_refln_F_squared_sigma
0 -2 0 -0.9 3.1
0 -4 0 51.69 14.4
0 -6 0 0.9 8.6
0 8 0 443.16 51.39
0 10 0 243.78 58.99
1 1 0 20.4 4.4
-1 -1 0 28.7 7.3
-1 1 0 17.9 5.2
-1 3 0 768.02 45.6
-1 -3 0 838.32 49.5
-1 5 0 602.24 47.4
-1 -5 0 641.24 50.69
-1 9 0 803.12 84.29
1 9 0 818.42 81.29
-1 11 0 982 98.49
-2 0 0 4559.94 167.08
-2 0 0 4739.93 173.98
2 0 0 5078.59 167.28
-2 2 0 3082.49 122.99
2 2 0 3160.98 115.09
-2 -2 0 3148.28 125.29
-2 -4 0 2807.72 129.49
-2 4 0 2920.61 128.59
-2 6 0 1430.36 88.49
-2 -6 0 1434.36 90.49
-2 8 0 399.96 58.99
-2 -8 0 438.06 63.09
2 8 0 503.35 67.19
-2 10 0 263.47 62.29
3 1 0 992.4 42.6
-3 -1 0 962.3 51.49
-3 1 0 917.71 50.39
-3 3 0 138.89 24.2
-3 -3 0 148.09 25.6
3 3 0 130.99 17.2
3 5 0 1519.35 74.79
-3 -5 0 1515.45 89.69
-3 5 0 1495.45 88.49
3 7 0 949.6 62.89
-3 -7 0 870.81 75.09
-3 7 0 1013.6 78.39
-3 9 0 1380.56 115.89
3 9 0 1254.87 85.99
-3 11 0 1047.8 108.09
-4 0 0 4028.1 144.29
-4 0 0 3934.61 160.68
4 0 0 3873.31 146.39
-4 2 0 5423.06 211.38
4 2 0 5361.36 194.68
-4 -2 0 5355.36 211.98
4 4 0 2378.26 102.09
-4 -4 0 2428.26 120.69
-4 4 0 2423.66 120.29
4 6 0 1924.31 94.89
-4 -6 0 1962.8 114.79
-4 6 0 1876.31 111.89
-4 8 0 265.27 50.69
-4 -8 0 297.57 57.59
4 8 0 315.47 45.9
-4 8 0 262.07 58.59
-4 10 0 155.68 49.5
-5 -1 0 182.78 29.2
-5 1 0 231.28 29
-5 -1 0 185.38 11.1
5 1 0 186.58 21.7
-5 1 0 218.88 33.7
-5 3 0 26.8 13.8
-5 -3 0 14.3 12.1
5 3 0 22 9.1
-5 5 0 708.93 62.09
5 5 0 675.33 45.6
-5 -5 0 684.63 61.29
-5 7 0 905.51 90.19
5 7 0 887.01 62.69
-5 7 0 900.81 81.39
-5 -7 0 869.41 78.19
5 9 0 1082.39 83.69
-5 9 0 1233.38 112.59
-6 0 0 4823.32 170.18
-6 0 0 4399.26 196.38
-6 -2 0 2678.23 133.89
-6 2 0 2769.32 136.29
6 2 0 2747.33 114.29
6 4 0 2624.84 113.79
-6 4 0 2585.24 147.29
-6 -4 0 2661.13 137.59
-6 4 0 2541.45 136.19
-6 -6 0 1166.08 90.69
-6 6 0 1246.58 93.49
6 6 0 1152.78 70.59
6 8 0 506.45 57.99
-6 -8 0 414.56 69.09
-6 8 0 556.34 87.09
-6 10 0 193.38 57.89
-7 1 0 1.4 10.9
7 1 0 0.4 6.2
-7 1 0 3.2 6.8
-7 -1 0 2.3 10.6
7 3 0 347.17 32.7
-7 -3 0 370.26 55.19
-7 3 0 399.16 54.19
-7 3 0 367.26 55.09
-7 5 0 401.16 60.99
7 5 0 380.26 43.2
-7 5 0 397.96 66.99
-7 -5 0 418.16 64.59
-7 7 0 987 97.19
-7 -7 0 904.11 87.09
7 7 0 885.41 66.09
-7 7 0 879.61 88.59
-7 9 0 429.66 80.19
-8 0 0 6326.67 272.57
-8 -2 0 3070.79 158.58
-8 2 0 2988.4 138.69
-8 2 0 2922.31 157.28
8 2 0 2879.61 129.19
-8 -4 0 1880.91 124.59
-8 4 0 1941.61 123.29
-8 4 0 2013.4 128.59
8 4 0 2089.59 101.69
-8 -6 0 425.96 71.79
-8 6 0 400.86 69.69
8 6 0 393.56 48.5
-8 6 0 429.76 71.59
-8 8 0 328.97 70.79
-8 -8 0 460.75 80.99
-9 1 0 59.59 27.6
-9 -1 0 47.8 23.8
-9 3 0 336.77 60.19
-9 -3 0 382.66 64.99
9 3 0 335.27 42
9 5 0 565.84 52.49
-9 5 0 580.84 81.59
-9 5 0 604.24 87.19
-9 -5 0 628.04 73.89
-9 7 0 630.24 96.89
9 7 0 888.21 72.39
-9 -7 0 812.72 109.59
-9 7 0 951.7 117.59
-10 0 0 1429.66 109.29
-10 -2 0 1447.66 110.89
10 2 0 1448.16 84.49
-10 2 0 1435.26 111.59
-10 4 0 954.2 93.49
-10 -4 0 920.91 92.19
10 4 0 992.2 70.49
-10 6 0 665.93 100.59
10 6 0 682.93 64.99
-10 6 0 844.22 104.09
-10 -6 0 650.23 95.69
-11 -1 0 200.68 51.59
-11 1 0 142.29 45.6
-11 3 0 147.49 46.2
11 3 0 184.28 36
-11 -3 0 163.48 52.09
11 5 0 484.45 63.19
-11 5 0 528.35 92.09
-11 -5 0 576.94 94.19
-12 0 0 1456.15 122.19
-12 2 0 1768.92 140.09
-12 -2 0 1664.93 137.79
12 4 0 886.51 76.09
-12 -4 0 1079.29 114.19
-12 4 0 905.21 103.89
0 0 -1 -4 2.2
0 -2 1 1132.09 51.09
0 2 -1 1440.56 59.59
0 -2 -1 1320.97 67.39
0 -4 -1 3333.57 148.19
0 -4 1 3114.79 131.59
0 6 -1 933.51 76.79
0 -6 -1 980.1 73.39
0 8 1 1270.27 95.39
0 8 -1 1595.24 111.19
0 10 -1 778.62 98.19
-1 1 -1 3747.32 131.99
-1 1 -1 3723.63 127.59
1 -1 -1 3559.74 131.99
-1 -1 1 3653.23 128.59
1 1 -1 3444.36 128.09
-1 1 1 3551.14 136.39
1 1 -1 3708.73 126.79
-1 -1 -1 3592.24 139.79
-1 3 -1 4260.17 178.48
-1 3 -1 4377.36 160.88
-1 -3 1 4420.16 163.88
1 3 -1 4326.27 167.08
-1 3 1 4350.76 176.38
-1 -3 -1 4212.68 179.68
-1 5 -1 2296.67 135.19
-1 5 -1 2589.04 116.79
-1 -5 1 2752.42 119.89
1 5 -1 2479.75 128.09
-1 5 1 2721.73 130.69
-1 -5 -1 2521.95 130.19
-1 7 -1 1391.66 105.69
-1 7 -1 1310.97 85.19
1 7 -1 1540.25 101.79
-1 7 1 1431.56 93.99
-1 -7 -1 1461.75 97.39
-1 9 -1 459.25 72.99
1 9 1 236.38 49.4
-1 -9 -1 417.76 62.89
1 9 -1 537.15 76.39
-1 9 1 437.16 68.29
-1 11 -1 19.1 30.2
-1 11 1 60.19 37.4
2 0 -1 -5.5 4.4
-2 0 1 -12.7 3.7
2 0 -1 -8.6 3
-2 0 -1 -6.9 5
-2 2 -1 54.39 11.1
2 2 1 26.4 6.1
-2 2 -1 71.79 15.7
-2 -2 -1 46.2 13.8
-2 2 1 32.2 11.4
2 2 -1 52.09 10.2
-2 -2 -1 56.69 9
2 2 -1 58.99 7.8
2 4 1 733.23 39.4
-2 4 -1 677.23 59.69
-2 4 -1 786.32 46.7
-2 -4 1 796.22 49.6
-2 4 1 802.42 56.89
-2 -4 -1 711.93 56.49
2 4 -1 770.92 47.9
-2 6 -1 974.4 83.89
-2 -6 1 956.2 65.69
-2 6 -1 861.61 61.59
2 6 -1 809.32 64.39
-2 6 1 906.41 71.29
-2 -6 -1 796.12 68.59
-2 8 -1 1614.64 118.89
-2 8 1 1540.95 105.79
2 8 -1 1363.36 98.59
-2 -8 -1 1389.56 103.39
-2 10 -1 1079.29 103.19
-3 -1 1 4915.31 188.48
-3 1 -1 5238.68 188.98
-3 1 -1 5091.29 183.48
3 1 1 4954.3 175.58
-3 1 1 4628.04 188.88
3 1 -1 5062.39 178.78
3 1 -1 5025.8 177.78
-3 -1 -1 4937.21 192.38
-3 -1 -1 5064.99 173.38
-3 -3 1 4427.76 176.58
-3 3 -1 4701.63 174.58
-3 3 -1 4510.05 191.08
3 3 1 4342.77 161.28
-3 3 1 4119.39 181.48
3 3 -1 4486.65 158.08
-3 -3 -1 4483.75 187.38
3 3 -1 4521.05 167.98
-3 5 -1 1360.46 101.19
-3 5 -1 1509.35 83.29
3 5 1 1511.95 71.79
3 5 -1 1557.14 77.79
3 5 -1 1492.75 78.19
-3 5 1 1561.24 94.99
-3 -5 -1 1585.04 95.99
-3 7 -1 1795.52 124.39
3 7 1 1534.65 83.39
-3 -7 1 1516.25 98.49
-3 7 1 1408.96 101.39
-3 -7 -1 1663.63 110.29
3 7 -1 1483.45 87.39
-3 9 -1 508.25 82.59
-3 9 1 447.86 71.29
3 9 -1 264.57 46.3
-3 -9 -1 386.66 67.69
-3 11 -1 106.39 49
3 11 -1 122.69 41.1
-3 11 1 190.58 56.89
-4 0 -1 -5.4 2.7
-4 0 1 -5.3 5.1
4 0 -1 -6.5 4.1
-4 0 -1 -2 5.7
-4 2 -1 614.34 44.2
-4 2 -1 584.94 43.6
-4 -2 1 685.93 45.1
4 2 1 752.02 35
-4 -2 -1 599.14 47.6
-4 -2 -1 583.84 28.8
4 2 -1 590.84 35.7
-4 2 1 700.63 48.4
4 4 1 1647.24 69.39
-4 -4 1 1692.63 86.19
-4 4 -1 1332.87 93.89
-4 4 -1 1362.26 79.49
4 4 -1 1427.26 61.49
4 4 -1 1427.66 72.59
-4 -4 -1 1415.86 89.99
-4 4 1 1662.53 93.09
-4 6 -1 1317.37 104.69
4 6 1 1303.77 71.39
-4 6 -1 1306.07 86.69
-4 -6 -1 1364.06 95.19
4 6 -1 1375.96 77.39
-4 6 1 1476.55 97.59
-4 8 -1 981 94.89
4 8 1 881.01 69.69
4 8 -1 872.71 69.39
-4 8 1 918.01 85.49
-4 -8 -1 897.51 85.79
-4 10 -1 985.1 99.89
4 10 -1 725.73 85.09
5 1 1 3165.68 119.59
-5 1 -1 2918.61 135.99
-5 -1 1 3216.78 138.89
-5 1 -1 3100.19 124.19
5 1 -1 3071.09 122.29
-5 -1 -1 3055.99 111.89
-5 1 1 3055.99 138.59
-5 -1 -1 2923.71 138.09
-5 3 -1 3127.89 147.99
-5 3 -1 3226.88 142.69
-5 -3 1 3105.29 142.59
5 3 1 3217.88 123.09
-5 3 1 2983 145.89
-5 -3 -1 3052.69 147.69
5 3 -1 3020.8 126.59
5 5 1 1474.85 73.99
-5 5 -1 1513.85 92.09
-5 5 -1 1464.65 106.59
-5 -5 1 1487.95 91.79
-5 -5 -1 1619.24 102.99
-5 5 1 1492.45 100.19
5 5 -1 1460.55 78.19
5 7 1 1273.87 75.29
-5 -7 1 1173.38 90.49
-5 7 -1 1321.17 110.29
5 7 -1 1248.58 80.39
-5 -7 -1 1413.86 104.29
-5 7 1 1264.17 100.49
-5 9 -1 326.37 67.29
5 9 -1 339.87 54.39
-5 -9 -1 304.17 66.29
-5 9 1 307.17 65.29
-6 0 1 0.2 10.1
-6 0 -1 2.6 8.7
-6 0 -1 -1.2 4.3
6 0 -1 0.6 6.5
-6 2 -1 124.69 24.1
-6 2 -1 112.19 26.7
6 2 1 86.89 16.6
-6 -2 1 143.79 31
6 2 -1 136.69 22
-6 2 1 69.69 22.6
-6 -2 -1 105.69 27.5
6 4 1 574.14 40.8
-6 4 -1 637.24 56.79
-6 -4 1 559.64 54.49
-6 4 -1 606.34 59.39
6 4 -1 612.44 43.6
-6 -4 -1 689.43 62.89
-6 4 1 661.43 60.49
-6 -6 1 647.24 64.49
-6 6 -1 648.64 64.39
6 6 1 629.14 48.1
-6 6 -1 612.04 82.99
6 6 -1 719.43 53.19
-6 6 1 570.14 66.79
-6 -6 -1 755.12 73.39
-6 8 -1 1134.89 106.49
6 8 -1 1111.39 79.89
-6 8 1 1013 100.69
-6 -8 -1 1057.59 98.99
-6 10 -1 919.41 120.49
-6 10 1 789.12 111.89
6 10 -1 774.22 90.89
-7 1 -1 2505.15 107.09
-7 -1 1 2618.94 132.09
-7 1 -1 2405.46 129.19
-7 -1 -1 2348.76 129.99
-7 1 1 2682.13 135.09
7 1 -1 2296.37 107.89
-7 3 -1 2538.65 131.19
-7 -3 1 2761.32 139.39
7 3 1 2777.22 113.59
-7 3 -1 2452.45 136.39
-7 3 1 2719.13 143.29
7 3 -1 2365.16 114.29
-7 -3 -1 2370.56 139.39
-7 5 -1 1413.76 109.59
-7 -5 1 1668.43 108.19
7 5 1 1773.92 87.19
-7 5 -1 1669.43 109.79
-7 -5 -1 1711.83 115.89
-7 5 1 1663.33 115.69
7 5 -1 1687.73 89.29
-7 7 -1 803.12 104.59
-7 -7 1 857.91 82.59
-7 7 1 903.41 90.59
7 7 -1 791.52 64.49
-7 -7 -1 757.62 83.59
-7 9 -1 244.98 61.99
7 9 -1 297.17 53.69
-7 -9 -1 292.47 71.79
-7 9 1 331.27 72.39
-8 0 -1 6.4 14.6
-8 0 1 6.7 14.3
8 2 1 204.08 29.6
-8 2 -1 322.77 52.59
-8 2 -1 327.67 40
-8 -2 1 255.87 46.2
-8 2 1 263.27 52.99
-8 2 1 289.07 51.79
8 2 -1 270.37 34.9
-8 -2 -1 324.27 54.39
-8 -4 1 916.71 79.69
-8 4 -1 932.91 81.99
-8 4 -1 1029.3 79.79
8 4 1 815.92 56.99
8 4 -1 952.7 62.99
-8 -4 -1 928.81 81.89
-8 4 1 829.72 79.29
8 6 1 462.05 56.09
-8 6 -1 484.65 75.69
-8 6 -1 549.54 80.99
-8 -6 1 588.34 66.89
8 6 -1 550.64 59.09
-8 6 1 569.04 86.49
-8 -6 -1 501.75 78.79
-8 6 1 472.35 76.89
-8 8 -1 713.43 102.59
-8 8 1 603.54 96.09
-8 8 1 871.11 113.89
8 8 -1 748.83 68.09
-8 -8 -1 745.73 88.09
-9 -1 1 1473.05 108.79
-9 1 -1 2150.78 125.99
-9 -1 -1 1805.82 118.79
9 1 -1 2015.6 96.09
-9 1 1 1423.86 109.59
-9 3 -1 1719.83 117.29
9 3 1 1637.04 86.49
-9 -3 1 1530.15 110.99
-9 3 1 1582.14 116.69
-9 -3 -1 1746.53 121.89
9 3 -1 1638.84 90.79
-9 5 -1 1273.87 106.09
9 5 1 1200.18 76.79
-9 5 -1 1076.09 94.59
-9 -5 1 1212.88 100.49
-9 5 1 1264.37 105.29
9 5 -1 1222.08 79.89
-9 5 1 1201.98 106.49
-9 -5 -1 1113.89 100.79
-9 7 -1 690.13 100.19
-9 -7 1 860.21 93.09
9 7 -1 774.62 69.19
-9 -7 -1 685.43 102.69
-9 7 1 955.6 119.49
-9 7 1 745.73 106.69
-10 0 -1 -1.8 18.2
-10 0 1 -5 15.4
-10 -2 1 26.1 24.6
-10 2 -1 22.3 23.7
10 2 -1 33 16.9
-10 -2 -1 26.5 23.8
-10 2 1 34.9 26.1
-10 4 -1 191.68 54.09
-10 -4 1 257.97 57.49
10 4 1 252.07 39.6
-10 -4 -1 233.28 54.59
-10 4 1 292.37 64.79
10 4 -1 205.08 36.8
-10 6 -1 543.25 82.59
-10 -6 1 502.55 84.39
-10 6 -1 494.95 86.99
-10 6 1 536.45 92.89
-10 -6 -1 481.45 86.69
-10 6 1 460.95 79.39
10 6 -1 470.15 61.19
-11 -1 1 1678.93 125.99
-11 1 -1 1663.23 125.99
-11 1 1 1546.45 122.59
-11 -1 -1 1755.92 131.39
-11 -3 1 1390.86 117.39
-11 3 -1 1323.47 114.19
11 3 -1 1439.56 89.39
-11 3 1 1274.67 115.49
-11 -3 -1 1311.87 119.29
-11 5 -1 691.73 104.09
-11 -5 1 829.32 93.89
-11 -5 -1 655.53 101.89
-11 5 1 766.22 110.89
11 5 -1 558.24 66.59
-12 0 -1 5.5 25.5
-12 0 1 -1.5 24
-12 2 -1 86.49 44.7
-12 -2 1 105.39 41.1
-12 -2 -1 103.99 43.2
-12 2 1 100.79 45.8
-12 4 -1 359.36 79.79
-12 -4 1 337.47 73.89
-12 -4 -1 268.37 68.29
12 4 -1 348.87 54.49
-12 4 1 269.67 69.09
0 0 -2 6051.79 208.28
0 0 -2 6662.73 216.28
0 0 -2 5654.13 220.18
0 -2 -2 2691.63 108.09
0 -2 -2 2735.73 125.59
0 2 -2 2744.73 106.89
0 -4 -2 2759.92 136.99
0 4 -2 2505.05 103.69
0 4 -2 2887.51 123.59
0 -6 -2 900.91 73.49
0 6 -2 819.42 69.89
0 8 -2 665.33 83.99
0 8 2 384.26 61.89
0 10 -2 210.28 52.89
0 10 2 162.78 48.1
-1 -1 2 369.76 19.6
1 -1 -2 338.37 17.2
-1 1 -2 336.87 21.5
1 -1 -2 300.97 21.7
-1 1 -2 305.17 21.6
-1 -1 -2 356.06 31.2
-1 -1 -2 322.37 21.1
1 1 -2 317.77 20.2
-1 1 2 388.86 28
1 1 -2 323.07 19.6
-1 3 -2 96.99 9.9
-1 3 -2 87.89 17.7
-1 -3 2 110.49 12.2
-1 -3 -2 101.49 26.4
1 3 -2 87.69 14.7
-1 3 2 100.19 22.3
-1 -3 -2 88.69 15.9
-1 5 -2 701.53 43.5
-1 5 -2 680.13 59.89
-1 -5 2 831.52 48.1
1 5 -2 631.54 50.89
-1 -5 -2 704.33 63.09
-1 5 2 936.91 68.59
-1 7 -2 1357.46 101.99
1 7 -2 1199.28 90.79
-1 -7 -2 1390.96 99.39
-1 7 2 1464.95 99.49
1 9 2 1055.29 94.69
-1 9 -2 1146.19 102.39
-1 -9 -2 1026.3 91.19
-1 9 2 1156.78 95.09
1 9 -2 1099.69 94.69
-1 11 -2 1111.19 109.49
2 0 -2 6678.73 228.78
2 0 -2 6540.35 231.48
-2 0 2 6595.54 238.08
-2 0 -2 6714.83 233.08
-2 0 -2 6390.76 241.18
-2 2 -2 4668.43 173.98
-2 2 -2 4649.43 165.18
2 -2 -2 4519.85 175.18
2 2 2 4456.45 155.78
-2 -2 2 4516.35 166.38
-2 -2 -2 4637.84 189.48
-2 -2 -2 4521.65 166.28
2 2 -2 4640.34 163.48
2 2 -2 4432.96 166.88
-2 2 2 4389.56 182.08
-2 -4 2 3907.01 154.38
2 4 2 3966.9 143.59
-2 4 -2 4059.69 176.58
-2 4 -2 3809.62 148.99
-2 -4 -2 4032.9 183.48
2 4 -2 3996.8 153.68
-2 4 2 3633.64 174.88
-2 6 -2 1833.52 120.19
2 6 -2 1995.8 103.89
-2 -6 -2 1975.8 121.09
-2 6 2 1854.21 115.89
-2 8 -2 790.42 97.19
-2 -8 -2 668.33 71.49
-2 8 2 573.24 79.09
2 8 -2 566.14 69.79
-2 10 -2 200.08 54.29
-2 10 2 231.58 57.79
-2 -10 -2 234.18 54.19
-3 -1 2 508.75 34.6
-3 1 -2 556.24 35.6
3 -1 -2 577.34 29.8
-3 1 -2 510.05 31.9
3 -1 -2 541.35 33.9
-3 -1 -2 506.85 28.2
3 1 -2 539.65 27.2
3 1 -2 504.55 29.8
-3 1 2 456.95 36.4
-3 -1 -2 512.25 40.1
-3 -3 2 313.17 26.4
-3 3 -2 230.68 32
3 3 2 277.37 17.2
-3 3 -2 242.88 23.8
3 3 -2 240.48 27.8
3 3 -2 216.48 17.3
-3 -3 -2 214.28 36.7
-3 3 2 338.17 36.1
-3 -3 -2 235.08 20.6
-3 -5 2 776.32 53.79
-3 5 -2 750.42 67.89
3 5 2 745.23 42.9
-3 5 -2 872.01 53.29
3 5 -2 849.22 49.8
3 5 -2 840.92 54.09
-3 -5 -2 828.42 70.29
-3 5 2 719.13 65.19
-3 7 -2 685.43 90.59
-3 -7 -2 697.53 72.39
-3 7 2 888.21 78.59
3 7 -2 704.33 58.29
-3 9 -2 939.61 117.09
3 9 -2 759.82 68.39
-3 -9 -2 702.43 80.89
-3 9 2 615.24 87.49
4 0 -2 9514.25 325.37
-4 0 2 9999 341.57
-4 0 -2 8975.6 341.07
4 0 -2 8547.75 324.57
-4 2 -2 6195.08 238.38
-4 2 -2 6289.47 237.08
4 2 2 6400.86 220.78
-4 -2 2 6257.67 238.68
4 2 -2 6348.46 229.68
-4 -2 -2 6185.98 222.58
-4 2 2 6261.27 249.08
4 2 -2 6242.98 217.38
-4 -2 -2 6152.08 251.57
-4 4 -2 2562.84 135.79
4 4 2 2880.71 104.89
-4 -4 2 2873.61 124.99
-4 4 -2 2473.25 118.79
4 4 -2 2423.56 114.19
-4 -4 -2 2476.45 137.29
-4 4 2 2845.22 139.99
-4 -4 -2 2592.14 111.39
4 4 -2 2650.43 102.59
4 6 2 735.03 52.69
-4 -6 2 806.12 66.29
-4 6 -2 787.82 77.79
-4 -6 -2 950.5 80.39
4 6 -2 874.21 59.69
-4 6 2 808.62 76.29
-4 8 -2 93.49 38.3
-4 8 2 243.28 52.39
4 8 -2 152.68 34.9
-4 -8 -2 144.59 45.3
-4 10 -2 111.49 45.5
-4 -10 -2 82.99 44.4
4 10 -2 108.99 36.9
-4 10 2 41.9 37.5
-5 1 -2 230.58 35.2
5 -1 -2 282.17 23.8
-5 1 -2 303.27 25.2
-5 -1 2 233.68 34.4
-5 -1 -2 318.47 36.1
5 1 -2 264.57 23.9
-5 -1 -2 257.07 20.1
-5 1 2 256.27 37.8
-5 -3 2 358.46 35.6
-5 3 -2 324.87 35.3
5 3 2 360.96 25.4
-5 3 -2 272.57 39
-5 3 2 383.66 43.3
5 3 -2 366.16 30.3
-5 -3 -2 343.37 24.6
-5 -3 -2 301.87 45.6
-5 5 -2 767.82 72.69
-5 5 -2 862.91 63.59
5 5 2 777.12 45.8
-5 -5 -2 867.51 75.29
5 5 -2 824.12 55.49
-5 5 2 762.82 70.69
-5 7 -2 663.23 93.59
5 7 -2 899.71 67.59
-5 7 2 924.01 85.79
-5 -7 -2 831.22 82.59
-5 9 -2 766.02 107.79
-5 9 2 764.12 87.79
5 9 -2 698.83 81.09
-5 -9 -2 789.72 90.49
6 0 -2 3760.22 151.38
-6 0 2 3487.05 169.58
-6 0 -2 4033.8 148.89
-6 0 -2 3930.91 174.28
-6 2 -2 2218.68 116.59
-6 -2 2 2211.58 115.59
-6 2 -2 2343.37 106.89
6 2 2 2179.68 94.29
6 2 -2 2235.88 101.29
-6 2 2 2355.36 123.29
-6 -2 -2 2287.77 124.69
6 4 2 1968.4 89.79
-6 4 -2 2080.09 117.49
-6 4 -2 2194.58 116.59
-6 -4 2 1993.8 111.19
-6 -4 -2 2066.39 125.69
-6 4 2 2110.99 126.79
6 4 -2 1943.01 97.79
-6 -6 2 1044.8 79.59
-6 6 -2 919.01 89.19
6 6 -2 974.1 67.09
-6 6 2 1135.79 97.49
-6 -6 -2 1032 90.69
-6 8 -2 322.37 70.99
-6 -8 -2 491.15 81.89
6 8 -2 495.95 62.69
-6 8 2 362.96 71.99
-7 -1 2 170.38 35.8
-7 1 -2 122.89 31.2
-7 1 -2 118.79 20.7
-7 1 2 185.38 37.7
-7 -1 -2 100.19 28.7
7 1 -2 112.39 22
-7 3 -2 246.28 43.6
7 3 2 275.67 30.7
-7 -3 2 235.48 40.9
-7 3 -2 369.16 46
-7 3 2 308.27 51.79
-7 -3 -2 293.07 51.69
7 3 -2 215.58 30.9
-7 -5 2 775.52 68.29
-7 5 -2 650.13 66.89
-7 5 -2 595.54 65.69
7 5 -2 638.64 51.59
-7 5 2 751.32 75.29
-7 -5 -2 712.83 74.49
-7 7 -2 1102.89 105.59
-7 7 2 1127.89 108.69
7 7 -2 1133.39 80.19
-7 -7 -2 1120.69 104.99
-7 9 -2 1008.2 126.09
-7 9 2 656.23 102.59
-7 -9 -2 811.32 113.99
7 9 -2 812.82 77.39
8 0 -2 3154.18 136.79
-8 0 -2 3173.18 164.78
-8 0 2 3049.09 160.98
-8 -2 2 2234.58 125.39
-8 2 -2 1873.91 120.29
-8 -2 -2 1945.31 127.59
8 2 -2 1945.11 101.19
-8 2 2 2365.26 131.49
-8 -4 2 1527.45 104.39
-8 4 -2 1419.06 104.79
-8 4 -2 1630.74 102.19
8 4 2 1472.15 79.39
-8 -4 -2 1643.84 116.09
8 4 -2 1476.85 85.79
-8 4 2 1575.44 114.79
-8 -6 2 722.33 73.59
-8 6 -2 613.24 85.99
8 6 -2 631.94 56.59
-8 6 2 582.24 87.89
-8 -6 -2 618.14 92.39
-8 8 -2 201.68 57.39
-8 8 2 225.88 62.69
-8 -8 -2 379.36 78.69
8 8 -2 298.87 51.79
-9 -1 2 38.4 23.2
-9 1 -2 12.9 18.7
-9 1 2 10.5 18.7
9 1 -2 10.1 12.6
-9 -1 -2 6.8 17.7
-9 3 -2 8.3 20.3
-9 -3 2 56.19 28.3
-9 3 -2 13.1 13.7
9 3 -2 26.3 17.2
-9 -3 -2 24.1 20.8
-9 3 2 14.9 20
-9 5 -2 218.88 55.09
-9 -5 2 200.08 49.3
-9 5 -2 147.89 39.2
-9 5 2 291.77 63.09
-9 -5 -2 199.38 53.19
9 5 -2 193.88 36.5
-9 7 -2 499.65 84.79
-9 7 2 428.76 83.39
9 7 -2 587.14 69.89
-9 -7 -2 580.54 98.89
-10 0 2 1936.01 130.79
-10 0 -2 1901.71 132.99
-10 2 -2 1855.31 129.89
-10 -2 2 1767.72 123.79
-10 2 2 1829.12 131.69
-10 -2 -2 1738.63 131.29
10 2 -2 1911.41 103.19
-10 -4 2 1579.14 118.79
-10 4 -2 1555.34 122.69
-10 -4 -2 1453.35 122.79
10 4 -2 1419.46 92.79
-10 4 2 1443.46 121.69
-10 6 -2 1023.7 96.69
-10 -6 2 979.6 98.69
-10 -6 -2 1084.39 111.19
10 6 -2 979.2 78.39
-10 6 2 967.8 109.59
-11 1 -2 58.49 34.7
-11 -1 2 62.39 32.6
-11 1 2 53.49 32.7
-11 -1 -2 89.49 39.4
-11 -3 2 172.58 47.7
-11 3 -2 130.89 48.6
-11 3 2 187.58 53.89
11 3 -2 128.89 32.5
-11 -3 -2 46.4 30.7
-11 -5 2 330.77 72.29
-11 -5 -2 304.97 74.09
11 5 -2 437.26 62.99
-11 5 2 242.88 70.09
-12 0 -2 1680.33 140.09
-12 0 2 1801.52 137.29
-12 -2 2 1230.88 113.09
-12 2 -2 1248.68 118.79
-12 2 2 1304.27 119.99
-12 -2 -2 1334.07 126.59
12 2 -2 1322.07 91.49
0 0 -3 -3.1 2.6
0 0 -3 -1.5 6.1
0 0 -3 -5.1 2.9
0 -2 -3 1044.3 69.79
0 2 -3 1049 53.19
0 -2 -3 1017.1 53.79
0 4 -3 2201.58 103.79
0 -4 -3 2229.58 105.49
0 -4 -3 2133.79 124.69
0 6 -3 1110.69 79.19
0 -6 -3 1226.78 92.89
0 8 3 970.1 87.99
0 8 -3 800.02 77.29
0 10 -3 554.64 83.99
0 10 3 615.14 86.89
-1 -1 3 4430.86 164.28
1 -1 -3 4716.83 159.58
-1 1 -3 4173.88 172.98
1 -1 -3 4706.93 172.58
-1 1 3 4680.53 180.98
-1 -1 -3 4629.04 171.28
1 1 -3 4604.34 165.18
1 1 -3 4803.62 170.58
-1 -1 -3 4387.06 191.88
1 3 3 4830.82 153.58
-1 -3 3 4168.38 150.38
1 -3 -3 4100.79 171.38
-1 3 -3 4283.97 171.08
1 3 -3 4380.46 166.48
-1 -3 -3 4123.89 167.28
-1 -3 -3 4087.69 194.68
-1 5 -3 1814.72 102.29
-1 -5 -3 2061.09 122.49
-1 5 3 1641.84 109.09
1 5 -3 1883.11 95.59
-1 7 -3 905.81 82.79
1 7 -3 1082.49 80.49
-1 -7 -3 1214.58 96.99
-1 7 3 1128.69 90.19
-1 9 -3 234.68 55.59
1 9 3 236.88 53.29
-1 9 3 316.47 61.19
-1 -9 -3 314.37 61.69
1 9 -3 319.57 58.49
2 0 -3 -5.4 3.4
2 0 -3 -7.1 3.5
-2 0 -3 -5 4.1
-2 0 -3 -4.7 6.9
-2 0 3 -7.5 3.9
-2 2 -3 181.68 24.2
2 -2 -3 221.88 22.6
-2 2 -3 220.08 20.1
2 2 -3 210.98 19.1
-2 2 3 151.78 28.9
-2 -2 -3 253.47 40.8
-2 -2 -3 219.88 20
2 2 -3 190.88 18.1
2 4 3 894.41 39.4
-2 4 -3 910.41 61.69
-2 -4 3 846.52 46.5
-2 4 3 872.61 69.69
-2 -4 -3 1014.3 78.89
-2 -4 -3 975.8 55.99
2 4 -3 955.5 52.79
2 4 -3 933.01 54.99
-2 6 -3 820.72 72.09
-2 6 3 703.63 69.09
-2 -6 -3 801.42 75.19
2 6 -3 806.92 58.99
-2 8 -3 871.91 88.89
-2 8 3 903.91 86.99
2 8 -3 835.52 83.29
-2 -8 -3 977.6 91.09
-2 10 -3 646.34 96.09
-2 -10 -3 722.23 85.19
2 10 -3 652.03 78.49
-2 10 3 777.52 87.39
3 -1 -3 2975.5 111.69
-3 1 -3 2782.42 119.19
-3 1 -3 2973 125.39
3 -1 -3 2911.21 120.29
-3 -1 -3 2908.01 116.29
3 1 -3 3003.6 114.49
3 1 -3 2953.2 114.59
-3 -1 -3 2790.32 136.09
-3 1 3 2916.01 127.89
-3 3 -3 2603.94 128.09
-3 -3 3 2999.5 120.29
-3 3 -3 2884.11 118.99
3 3 3 3142.59 105.29
3 3 -3 2811.72 121.39
-3 -3 -3 2871.51 148.89
-3 3 3 3177.68 146.59
-3 -3 -3 2972.5 120.99
3 3 -3 2904.51 115.89
-3 5 -3 1573.44 101.19
-3 5 3 1943.51 115.29
-3 -5 -3 1704.43 114.69
3 5 -3 1615.44 81.09
3 5 -3 1525.35 86.49
-3 7 -3 812.62 83.79
-3 7 3 1018.6 89.19
3 7 -3 895.21 69.09
-3 -7 -3 864.81 84.29
-3 9 -3 283.27 66.69
-3 -9 -3 308.67 64.49
-3 9 3 273.47 60.19
3 9 -3 214.58 44.8
4 0 -3 -5.8 3.6
-4 0 -3 -3.8 6.9
-4 0 3 -1 5.7
-4 0 -3 2 5
4 0 -3 -2.4 4.8
-4 2 -3 344.07 32.1
-4 2 -3 325.67 30.3
-4 -2 -3 301.17 24.6
-4 2 3 344.07 37
4 2 -3 353.16 28
-4 -2 -3 338.47 48.8
4 2 -3 357.16 24
-4 4 -3 1389.06 74.29
-4 4 -3 1296.57 82.89
-4 -4 3 1341.27 73.79
-4 -4 -3 1347.27 69.29
4 4 -3 1350.96 72.99
-4 -4 -3 1297.77 94.79
-4 4 3 1269.07 91.69
4 4 -3 1387.76 63.39
-4 6 -3 1105.69 91.39
-4 6 3 864.31 83.69
4 6 -3 1133.99 72.69
-4 -6 -3 1126.69 94.89
-4 8 -3 943.81 98.49
-4 -8 -3 1094.39 102.19
-4 8 3 1176.68 104.39
4 8 -3 1065.49 82.39
-4 10 -3 644.14 101.39
-4 10 3 509.85 87.39
-4 -10 -3 627.64 95.59
4 10 -3 680.33 83.09
-5 1 -3 3063.79 124.29
-5 1 -3 2964.9 136.69
-5 -1 3 2806.12 132.89
5 -1 -3 2794.32 116.19
5 1 -3 2952.2 119.39
-5 -1 -3 2880.81 116.39
-5 -1 -3 2798.62 140.89
-5 1 3 2498.85 131.99
5 1 -3 3045.2 115.89
-5 3 -3 2944.71 137.09
-5 3 -3 2881.21 136.09
5 3 3 2844.62 112.49
-5 3 3 3032.9 152.88
-5 -3 -3 2878.11 154.78
-5 -3 -3 3097.89 121.99
5 3 -3 2937.31 126.69
-5 5 -3 1767.72 111.89
-5 5 3 1797.62 117.79
-5 -5 -3 1645.34 116.69
5 5 -3 1700.43 91.79
-5 7 -3 915.51 93.19
-5 -7 -3 987.3 97.59
-5 7 3 1068.79 96.49
5 7 -3 1194.98 81.19
-5 9 -3 379.56 78.49
5 9 -3 282.27 53.79
-5 -9 -3 311.87 70.29
-5 9 3 301.17 64.59
-6 0 3 4.1 10.7
-6 0 -3 2.5 5.6
-6 0 -3 -2.4 9.5
6 0 -3 0.7 6.8
-6 -2 3 66.09 20.7
-6 2 -3 112.89 22.6
-6 2 -3 110.09 28.5
-6 -2 -3 146.79 19.8
-6 -2 -3 94.49 30.2
-6 2 3 99.99 29.9
6 2 -3 145.09 24.6
-6 4 -3 482.65 51.09
-6 -4 3 298.17 44.5
-6 4 -3 498.85 50.49
-6 -4 -3 539.25 61.79
6 4 -3 470.75 40.4
-6 4 3 500.85 58.79
-6 6 -3 586.54 80.39
-6 6 3 653.93 75.39
-6 -6 -3 600.14 84.39
6 6 -3 485.65 47.6
-6 8 -3 435.06 80.99
-6 8 3 792.82 92.19
6 8 -3 756.52 68.29
-6 -8 -3 763.02 108.59
-7 -1 3 2458.45 131.39
-7 1 -3 2527.15 136.19
7 -1 -3 2537.15 111.09
7 1 -3 2422.76 112.19
-7 1 3 2410.86 133.29
-7 -1 -3 2281.67 135.69
-7 -3 3 2052.69 117.89
-7 3 -3 2220.78 125.59
-7 3 -3 2060.89 111.99
7 3 -3 2235.38 106.39
-7 3 3 2144.69 129.99
-7 -3 -3 2183.18 134.79
-7 5 -3 1204.38 91.49
-7 -5 3 972.4 80.59
-7 -5 -3 1270.57 103.09
7 5 -3 1211.08 74.89
-7 5 3 949.31 93.59
-7 7 -3 630.94 90.39
-7 -7 -3 567.94 91.99
-7 7 3 726.43 103.49
7 7 -3 631.94 60.69
-7 9 -3 236.08 68.69
-7 9 3 121.69 53.39
-7 -9 -3 218.58 68.69
7 9 -3 147.29 41.9
-8 0 -3 -6.1 11.2
8 0 -3 11.1 9.8
-8 0 3 9.3 15.7
-8 2 -3 359.96 58.89
-8 2 -3 295.47 38.7
-8 -2 3 260.47 46
-8 2 3 288.37 53.19
8 2 -3 250.07 35.4
-8 -2 -3 233.68 49.4
-8 4 -3 863.91 71.19
-8 -4 3 745.33 70.39
-8 4 -3 830.12 79.79
-8 -4 -3 934.71 88.49
8 4 -3 818.12 62.09
-8 4 3 948.61 88.59
-8 6 -3 625.74 86.19
-8 -6 -3 595.64 91.59
8 6 -3 650.03 58.79
-8 6 3 807.52 92.19
-8 8 -3 462.15 83.69
-8 -8 -3 533.95 94.09
8 8 -3 584.84 72.89
-8 8 3 519.95 93.69
-9 -1 3 2199.18 130.79
-9 1 -3 1838.02 128.49
-9 -1 -3 1819.72 130.49
9 1 -3 1867.71 101.59
-9 1 3 2071.69 131.09
-9 -3 3 1773.62 116.79
-9 3 -3 1817.52 124.99
-9 3 -3 1681.73 100.19
9 3 -3 1682.93 97.99
-9 3 3 1952.3 131.29
-9 -3 -3 1587.14 125.09
-9 5 -3 1032.8 85.89
-9 -5 3 962.2 89.49
-9 -5 -3 995.6 102.79
-9 5 3 958.8 99.09
9 5 -3 926.61 71.09
-9 7 -3 561.84 86.09
-9 7 3 464.15 87.79
9 7 -3 472.75 64.09
-9 -7 -3 481.05 87.39
-10 0 -3 -0.8 17.6
-10 0 3 -11.2 15
-10 2 -3 147.59 45
-10 -2 3 88.59 34.4
10 2 -3 80.99 27.2
-10 2 3 64.09 33
-10 -2 -3 114.69 40.9
-10 -4 3 336.17 62.89
-10 4 3 295.67 67.09
10 4 -3 376.46 52.39
-10 -4 -3 382.66 76.79
-10 6 -3 499.35 78.19
-10 -6 -3 632.34 105.29
10 6 -3 401.56 58.49
-10 6 3 340.77 78.89
-11 1 -3 1318.87 116.99
-11 -1 3 1197.48 104.59
-11 -1 -3 1245.18 115.59
11 1 -3 1136.19 81.19
-11 1 3 1193.38 108.79
-11 -3 3 1044.2 99.49
-11 3 -3 961.1 105.39
-11 -3 -3 964.1 103.69
11 3 -3 925.31 75.59
-11 3 3 1033.2 106.29
-11 -5 3 631.54 99.69
-11 5 3 565.14 100.59
-11 -5 -3 651.03 108.49
11 5 -3 567.44 72.99
-12 0 -3 -0.3 32.2
-12 0 3 -3.2 25.5
-12 -2 3 61.49 35.9
-12 2 -3 102.19 48.8
12 2 -3 55.89 27.4
-12 2 3 110.69 49.6
-12 -2 -3 117.49 49.99
0 0 -4 7240.18 247.68
0 0 -4 7275.97 263.67
0 0 4 6960.3 267.17
0 -2 4 6133.29 213.28
0 -2 -4 5909.81 258.17
0 2 -4 6498.05 233.98
0 -2 -4 6202.28 234.48
0 -4 -4 2161.98 107.99
0 4 -4 2258.67 108.29
0 -4 -4 2338.37 136.09
0 6 4 1259.27 98.69
0 -6 -4 1265.97 100.59
0 6 -4 1250.27 84.09
0 8 4 133.79 41.6
0 8 -4 174.58 44
0 10 4 217.88 56.89
0 10 -4 122.69 46.3
1 -1 -4 331.77 18.8
-1 1 -4 322.37 29.7
1 -1 -4 347.97 28.6
-1 -1 4 338.27 24.9
-1 1 -4 290.37 26.7
-1 1 4 348.77 33.4
-1 -1 -4 316.37 45.9
1 1 -4 271.87 24.9
-1 -1 -4 328.27 14.6
-1 -1 -4 355.16 28.6
-1 3 -4 145.49 24.5
1 -3 -4 122.29 22.5
-1 -3 -4 168.58 38.4
-1 -3 -4 141.39 23.6
1 3 -4 143.39 21.6
-1 3 4 127.29 32.1
-1 5 -4 761.02 59.59
-1 -5 -4 764.52 74.99
-1 -5 -4 770.52 56.89
1 5 -4 780.12 55.79
-1 5 4 669.93 67.59
-1 7 -4 741.03 70.69
-1 7 4 633.34 70.79
1 7 -4 709.73 63.79
-1 -7 -4 706.33 79.29
1 9 4 807.82 86.59
-1 9 -4 527.65 84.29
1 9 -4 648.14 84.89
-1 9 4 701.63 80.19
-2 2 -4 2737.43 114.79
-2 -2 4 2516.65 105.49
2 -2 -4 2748.82 118.49
-2 2 -4 2623.94 116.99
2 2 -4 2644.94 108.99
-2 -2 -4 2615.64 144.09
2 2 -4 2686.83 111.79
-2 -2 -4 2614.14 113.29
-2 2 4 2742.13 131.29
2 -4 -4 2429.56 121.49
-2 4 -4 2509.25 120.79
2 4 -4 2406.16 111.99
2 4 -4 2451.85 109.89
-2 -4 -4 2325.47 143.19
-2 4 4 2567.24 139.19
-2 -4 -4 2385.46 112.29
-2 6 -4 1340.07 94.19
-2 6 4 1324.37 101.29
2 6 -4 1255.97 82.19
2 6 -4 1244.48 79.19
-2 -6 -4 1287.67 105.29
-2 8 -4 302.47 61.49
-2 -8 -4 496.75 82.29
-2 8 4 587.44 86.99
2 8 -4 497.55 64.79
-2 10 -4 154.98 52.89
2 10 4 151.38 49.4
2 10 -4 132.39 39.1
-2 -10 -4 152.08 52.49
-2 10 4 151.78 50.09
-3 1 -4 10.1 11.1
3 -1 -4 -4.2 3
-3 -1 4 0.4 6.1
3 -1 -4 21.6 10.5
-3 1 -4 17.6 9.2
-3 1 4 -1.5 7.1
-3 -1 -4 2.5 13.2
3 1 -4 6.1 6.8
-3 -1 -4 23.1 10
3 1 -4 3.5 5.7
-3 3 -4 260.07 36.1
3 -3 -4 295.77 38.9
-3 -3 4 433.96 30.4
-3 -3 -4 300.17 28.9
-3 3 4 378.06 43.7
3 3 -4 337.07 30.2
3 3 -4 308.97 27.2
-3 -3 -4 286.87 51.59
-3 5 -4 530.05 52.69
-3 -5 -4 497.45 74.29
3 5 -4 527.95 46
3 5 -4 435.26 38.3
-3 -5 -4 488.45 43.4
-3 5 4 522.15 60.69
-3 7 -4 1186.68 100.29
-3 7 4 1347.57 109.19
-3 -7 -4 1303.17 109.49
3 7 -4 1182.78 85.79
-3 9 -4 747.83 105.09
3 9 -4 984.6 84.59
-3 9 4 754.32 89.19
-3 -9 -4 854.61 95.99
4 0 -4 4383.16 176.08
-4 0 -4 4427.36 177.78
-4 0 4 4761.12 187.78
-4 0 -4 4526.35 198.98
4 0 -4 4327.47 169.18
4 -2 -4 1750.72 91.79
-4 2 -4 1815.52 90.79
-4 2 -4 1763.42 92.79
-4 -2 4 1699.73 87.49
4 2 -4 1739.23 79.89
-4 2 4 1757.52 100.19
-4 -2 -4 1812.02 83.79
-4 -2 -4 1854.71 112.79
4 2 -4 1710.63 82.09
-4 4 -4 2437.36 124.59
4 4 -4 2351.06 112.49
-4 -4 -4 2499.65 110.89
4 4 -4 2388.16 104.19
-4 -4 -4 2239.38 142.09
-4 4 4 2334.57 138.69
-4 6 -4 1113.89 88.89
4 6 -4 1145.69 74.39
-4 6 4 714.03 79.79
-4 -6 -4 1048.1 98.19
-4 8 -4 447.76 77.79
4 8 -4 380.16 57.09
-4 -8 -4 389.66 72.09
-4 8 4 375.46 74.19
5 -1 -4 2.4 7.2
-5 1 -4 6.1 7.6
-5 1 -4 -0.6 11.4
-5 -1 4 0.2 8.7
5 -1 -4 13.6 8.6
-5 -1 -4 8.6 14.2
5 1 -4 7.8 8.3
-5 -1 -4 3.6 6.5
5 1 -4 -0.5 6.2
-5 1 4 5.5 10.2
-5 3 -4 103.79 24.2
-5 -3 4 108.39 23.8
-5 -3 -4 48.3 23.5
-5 3 4 92.49 28.4
5 3 -4 66.79 17.5
-5 -3 -4 45.1 13.5
-5 5 -4 321.17 53.19
-5 -5 -4 246.58 55.09
-5 5 4 256.07 52.39
5 5 -4 265.87 38.1
-5 7 -4 710.63 92.79
-5 -7 -4 810.82 91.49
-5 7 4 938.01 95.99
5 7 -4 875.91 72.59
-5 9 -4 651.23 102.19
-5 -9 -4 861.81 117.09
5 9 -4 820.82 91.39
-5 9 4 547.45 92.69
6 0 -4 2883.61 125.89
-6 0 4 2973.6 145.99
-6 0 -4 2987.5 154.58
6 0 -4 3025.6 132.79
-6 0 -4 3030.4 130.39
-6 -2 4 2756.42 132.89
-6 2 -4 2461.55 122.59
-6 2 -4 2686.23 139.59
-6 2 4 2850.61 144.69
-6 -2 -4 2562.14 113.69
-6 -2 -4 2509.55 147.79
6 2 -4 2478.95 116.49
-6 4 -4 2057.79 117.09
-6 -4 -4 2011.6 136.09
-6 4 4 2146.89 136.29
6 4 -4 2080.19 105.29
-6 6 -4 1183.28 98.59
6 6 -4 1168.28 80.49
-6 -6 -4 1103.79 104.29
-6 6 4 1431.66 116.69
-6 8 -4 270.07 63.99
-6 -8 -4 438.06 86.29
-6 8 4 418.56 81.59
6 8 -4 454.55 65.99
-7 -1 4 176.78 36.8
7 -1 -4 184.38 29.2
-7 1 -4 157.08 27.6
-7 1 -4 113.79 33.9
-7 1 4 225.08 42.6
7 1 -4 130.19 25.3
-7 -1 -4 159.68 24.5
-7 -1 -4 178.98 43.3
-7 3 -4 58.19 20.7
-7 -3 4 68.89 24.4
-7 -3 -4 65.49 31.8
-7 3 4 77.29 29.6
7 3 -4 83.09 22.8
-7 5 -4 440.26 64.89
-7 5 4 418.36 72.69
7 5 -4 384.96 48.7
-7 -5 -4 388.06 72.49
-7 7 -4 472.85 81.19
-7 -7 -4 503.35 88.39
-7 7 4 326.17 71.79
7 7 -4 421.16 60.89
8 0 -4 2487.55 117.69
-8 0 -4 2436.46 149.19
-8 0 4 2539.35 144.09
-8 2 -4 2558.34 151.98
-8 2 -4 2524.75 125.79
-8 -2 4 2671.73 143.89
-8 -2 -4 2559.24 157.38
-8 2 4 2322.67 144.89
8 2 -4 2517.15 123.19
-8 4 -4 1187.48 85.89
8 4 -4 1192.78 77.19
-8 -4 -4 997.5 99.09
-8 4 4 1236.98 105.39
-8 6 -4 652.03 86.69
-8 -6 -4 705.53 103.69
8 6 -4 701.03 62.29
-8 6 4 626.94 96.99
-9 1 -4 57.99 33.9
-9 -1 4 55.49 27
-9 -1 -4 47 28.9
-9 1 4 64.99 32.7
9 1 -4 61.29 22.2
-9 -3 4 106.69 37.6
-9 3 -4 187.58 37.1
-9 -3 -4 198.98 53.89
9 3 -4 107.89 27.1
-9 3 4 84.89 37.8
-9 5 -4 491.45 71.99
-9 -5 -4 512.35 88.79
9 5 -4 507.05 61.79
-9 5 4 407.86 79.79
-9 -7 -4 507.85 94.59
10 0 -4 1580.64 93.29
-10 0 4 1590.64 119.59
-10 0 -4 1602.84 129.79
-10 2 -4 1253.57 114.09
-10 -2 4 1109.29 97.39
10 2 -4 1232.48 81.49
-10 -2 -4 1291.87 114.59
-10 2 4 1033.6 102.89
-10 -4 -4 977.8 106.19
-10 4 4 1013.9 106.69
10 4 -4 890.81 74.29
-11 -1 4 -0.7 22.8
-11 1 -4 16.9 31.7
-11 -1 -4 -0.8 28.6
-11 1 4 -2.7 21.7
11 1 -4 16.7 19.4
-11 -3 4 176.88 50.39
-11 -3 -4 139.79 53.99
-11 3 4 127.69 52.19
11 3 -4 117.59 35.5
-12 0 -4 1497.55 141.39
-12 0 4 1558.94 129.59
0 0 -5 -1 4.2
0 0 5 1.7 7.4
0 0 -5 -2 4.5
0 -2 -5 163.38 25.6
0 -2 -5 164.68 37.2
0 2 -5 144.39 24.9
0 -4 -5 661.13 51.89
0 -4 -5 698.83 71.29
0 4 -5 696.23 52.59
0 6 5 1167.18 98.99
0 6 -5 1016.3 77.39
0 8 5 894.21 92.79
0 8 -5 920.21 84.49
0 10 5 570.24 90.29
1 -1 -5 2253.67 87.59
1 -1 -5 2184.88 106.19
-1 1 -5 2415.16 107.39
-1 1 -5 2168.48 105.69
-1 -1 5 2396.46 100.19
-1 1 5 2483.25 116.89
1 1 -5 2355.96 106.79
-1 -1 -5 2259.37 106.79
-1 -1 -5 2290.47 127.49
1 1 -5 2382.96 95.49
-1 3 -5 2308.17 114.09
1 -3 -5 2517.35 117.59
-1 -3 -5 2386.16 145.29
-1 -3 -5 2413.16 114.39
1 3 -5 2401.06 107.49
1 3 -5 2482.65 113.29
-1 3 5 2399.66 134.79
1 -5 -5 1154.08 79.59
-1 5 -5 1310.07 82.99
-1 5 5 1060.09 91.69
-1 -5 -5 1165.38 76.49
1 5 -5 1155.58 74.49
-1 -5 -5 1196.88 103.19
-1 7 -5 1048.4 87.29
-1 -7 -5 1105.59 103.29
-1 7 5 1088.79 97.19
1 7 -5 1122.09 85.19
1 9 5 218.68 60.19
-1 9 -5 158.98 47.3
-1 9 5 183.38 51.19
-2 0 -5 7.6 13.8
2 0 -5 3.2 7
-2 0 5 7.9 9.4
2 0 -5 3.9 5
-2 0 -5 2.8 5.9
2 -2 -5 168.18 27.3
-2 2 -5 158.08 26.5
2 2 -5 164.98 23.8
2 2 -5 173.48 24.9
-2 -2 -5 191.88 27.3
-2 2 5 145.89 31.2
-2 -2 -5 177.68 42.7
2 -4 -5 726.83 58.19
-2 4 -5 683.53 56.39
2 4 -5 796.52 53.59
2 4 -5 744.03 53.09
-2 -4 -5 831.22 81.79
-2 4 5 661.43 68.09
-2 -4 -5 710.63 52.29
-2 6 -5 653.03 63.99
2 6 -5 632.54 57.79
-2 6 5 671.63 91.69
-2 -6 -5 537.85 81.59
2 6 -5 722.93 58.29
-2 8 -5 742.13 96.29
-2 -8 -5 788.72 93.39
-2 8 5 821.92 89.99
2 8 -5 782.72 72.49
3 -1 -5 3276.87 127.49
-3 1 -5 3387.46 144.89
-3 1 -5 3263.07 157.98
-3 -1 5 3216.98 139.49
3 -1 -5 3431.16 145.49
-3 -1 -5 3266.17 141.89
-3 -1 -5 3327.77 173.28
-3 1 5 3162.48 150.58
3 1 -5 3275.97 139.69
3 1 -5 3457.85 132.99
3 -3 -5 2759.92 133.59
-3 3 -5 2743.43 132.19
-3 -3 -5 2964.8 168.48
-3 -3 -5 2681.13 124.49
3 3 -5 2773.42 122.79
3 3 -5 2770.62 121.79
-3 3 5 2755.92 148.49
3 5 -5 1590.14 86.49
-3 5 5 1327.37 107.99
-3 -5 -5 1489.55 119.49
-3 -5 -5 1717.93 91.89
3 5 -5 1542.15 89.79
-3 7 -5 663.93 86.09
-3 7 5 665.03 96.69
-3 -7 -5 791.72 90.69
3 7 -5 658.43 75.59
-3 9 -5 240.08 60.69
-3 -9 -5 294.07 68.39
-3 9 5 240.98 63.69
3 9 -5 271.17 55.39
-4 0 -5 5.1 15.6
-4 0 -5 -3 5.5
-4 0 5 -2.5 7.9
4 0 -5 -2.4 6.9
4 0 -5 4 7.3
-4 -2 5 627.24 45.5
-4 2 -5 476.75 42.8
4 -2 -5 553.64 46.1
-4 -2 -5 519.85 61.09
-4 -2 -5 461.65 39.3
4 2 -5 486.65 38
-4 2 5 672.53 57.19
4 2 -5 450.15 37.3
-4 4 -5 1225.88 83.59
-4 4 5 1508.85 105.99
4 4 -5 1127.59 75.19
-4 -4 -5 1242.98 74.29
-4 -4 -5 1345.27 109.89
4 4 -5 1336.27 76.59
-4 6 -5 463.05 66.99
-4 6 5 517.25 81.19
-4 -6 -5 411.16 52.69
-4 -6 -5 505.95 82.79
4 6 -5 385.96 52.19
-4 8 -5 604.54 90.49
-4 -8 -5 523.95 88.59
4 8 -5 584.64 72.99
-4 8 5 499.25 83.09
-5 -1 5 2482.35 120.89
5 -1 -5 2356.06 103.59
5 -1 -5 2247.28 114.49
-5 1 -5 2307.57 133.09
-5 1 -5 2405.66 115.79
5 1 -5 2461.95 107.79
-5 1 5 2511.95 129.99
-5 -1 -5 2323.77 140.39
-5 -1 -5 2340.17 111.79
5 1 -5 2403.46 110.59
-5 3 -5 1922.21 105.79
-5 -3 -5 1836.22 94.09
5 3 -5 1855.91 94.89
-5 -3 -5 1931.61 131.39
-5 3 5 1945.21 120.89
-5 5 -5 1066.19 84.79
5 5 -5 1059.59 71.89
-5 -5 -5 1115.29 103.59
-5 5 5 1029.9 95.29
-5 7 -5 420.76 72.69
-5 -7 -5 485.55 86.19
-5 7 5 534.65 85.89
5 7 -5 534.55 67.39
-5 -9 -5 256.17 71.89
-5 9 5 149.09 55.79
5 9 -5 202.98 53.09
-6 0 -5 1.2 8.9
6 0 -5 3.4 10.6
-6 0 -5 17.3 20.5
6 0 -5 -5.9 8
-6 0 5 4.1 13.5
-6 2 -5 175.38 31.6
-6 -2 -5 254.87 34.4
-6 2 5 145.99 37.3
-6 -2 -5 222.78 51.29
6 2 -5 152.68 27.1
-6 4 -5 626.04 60.49
-6 -4 -5 732.33 81.69
6 4 -5 660.03 53.19
-6 4 5 592.84 84.59
-6 6 -5 835.62 80.29
-6 -6 -5 620.74 94.99
-6 6 5 505.65 83.59
6 6 -5 682.53 60.39
-6 8 -5 697.53 104.09
-6 -8 -5 664.13 103.89
6 8 -5 637.64 81.29
-7 1 -5 1883.71 101.79
7 -1 -5 1860.31 94.09
-7 -1 5 2032 118.29
-7 1 -5 1982.7 128.89
-7 1 5 1937.61 119.09
7 1 -5 1881.71 97.69
-7 -1 -5 1934.71 132.69
-7 -1 -5 1856.81 97.49
-7 3 -5 1581.84 98.89
7 3 -5 1676.13 92.49
-7 -3 -5 1693.33 127.99
-7 3 5 1703.13 118.59
-7 5 -5 815.52 77.39
-7 5 5 694.83 99.09
7 5 -5 887.41 66.69
-7 -5 -5 659.73 96.79
-7 7 -5 748.33 99.69
-7 7 5 641.94 106.79
-7 -7 -5 601.14 99.69
7 7 -5 573.54 71.99
-8 0 -5 0.1 21.1
8 0 -5 4 12.2
-8 0 5 2.7 15.3
-8 -2 5 82.89 31.7
-8 2 -5 84.29 25.4
-8 2 5 120.39 39.9
-8 -2 -5 103.69 41.9
8 2 -5 75.29 22.8
-8 4 -5 359.26 56.79
-8 4 5 378.96 71.89
-8 -4 -5 397.76 79.39
8 4 -5 334.07 46.3
-8 6 -5 686.43 92.19
-8 6 5 569.64 95.19
8 6 -5 516.55 64.09
-8 -6 -5 534.05 94.99
-9 1 -5 1315.77 114.99
-9 -1 5 1248.38 99.09
-9 1 5 1116.29 97.89
9 1 -5 1226.68 79.79
-9 -1 -5 1295.87 115.69
-9 3 -5 1106.59 84.29
9 3 -5 1304.87 85.59
-9 3 5 1219.08 107.19
-9 -3 -5 1300.57 119.09
-9 5 -5 731.13 75.69
-9 -5 -5 847.22 120.39
-9 5 5 617.24 101.09
9 5 -5 672.73 73.89
10 0 -5 -4 14.4
-10 0 -5 1.7 31.8
-10 -2 5 32.2 26.5
-10 2 5 53.29 33.8
10 2 -5 59.99 23.8
-10 -2 -5 55.99 40.2
-10 -4 -5 368.46 83.09
-10 4 5 217.68 63.89
10 4 -5 225.08 46
-11 -1 5 1122.39 105.39
-11 1 5 1055.19 108.39
-11 -1 -5 1235.08 123.69
11 1 -5 1174.68 85.39
0 0 -6 2280.47 118.29
0 0 6 2836.92 124.29
0 2 6 2441.26 137.09
0 -2 -6 2418.86 118.49
0 2 -6 2458.35 117.79
0 4 6 1787.22 123.79
0 4 -6 1758.82 98.19
0 -4 -6 1655.33 97.49
0 6 -6 1442.96 95.19
0 6 6 1165.98 106.59
0 8 6 233.98 59.89
0 8 -6 370.16 64.49
1 -1 -6 141.69 26.8
-1 1 -6 131.49 24.1
-1 1 -6 112.49 17.4
1 1 -6 126.89 19.7
1 1 -6 146.39 26.3
-1 -1 -6 114.79 23.3
-1 -1 -6 107.79 33.7
-1 1 6 170.48 34.6
1 -3 -6 123.29 26.7
-1 3 -6 135.89 27.3
1 3 -6 128.59 25.1
-1 -3 -6 101.79 24
-1 -3 -6 93.79 36
1 3 -6 123.29 25.4
-1 3 6 262.07 49.3
-1 5 -6 506.15 51.49
1 -5 -6 512.65 52.19
1 5 -6 540.95 50.09
-1 5 6 468.55 72.89
1 5 -6 451.85 46.7
-1 -5 -6 530.05 82.79
-1 -5 -6 533.85 50.19
-1 7 -6 570.64 75.69
1 7 6 774.32 105.49
1 7 -6 619.14 73.59
-1 -7 -6 659.13 98.99
-1 7 6 710.33 96.89
1 7 -6 592.54 73.19
-1 9 -6 701.43 99.39
1 9 6 834.12 114.39
-1 9 6 717.93 108.49
1 9 -6 704.73 86.79
-2 0 6 2803.52 134.29
2 0 -6 3026.9 117.19
2 0 -6 3112.89 136.99
-2 0 -6 2951.5 154.68
-2 0 -6 2977.2 136.89
-2 2 -6 1965.6 104.59
2 -2 -6 2074.09 106.79
-2 -2 -6 2015.7 102.89
-2 2 6 1966.3 116.19
2 2 -6 1973.3 101.29
-2 -2 -6 2013.1 134.99
2 2 -6 2096.49 93.69
2 -4 -6 1668.53 98.79
-2 4 -6 1632.84 97.19
2 4 -6 1504.35 87.69
-2 -4 -6 1615.94 126.99
2 4 -6 1587.24 90.99
-2 4 6 1695.23 118.39
-2 -4 -6 1604.54 92.29
-2 6 -6 763.12 73.39
2 6 -6 754.32 66.29
-2 6 6 915.41 91.89
-2 -6 -6 752.22 106.29
-2 -6 -6 822.02 67.79
2 6 -6 720.53 63.39
-2 8 -6 197.68 52.69
-2 -8 -6 261.77 66.89
-2 8 6 317.77 69.29
2 8 -6 302.57 56.69
-3 -1 6 -1 11.5
3 -1 -6 5.1 9
-3 1 -6 0 7.2
3 -1 -6 -0.9 6.5
3 1 -6 0.3 6.6
-3 -1 -6 -1.2 8.6
-3 -1 -6 17.8 22
-3 1 6 6.1 12.9
3 1 -6 12 8.5
-3 3 -6 195.18 33.8
3 -3 -6 231.88 37.1
-3 -3 -6 229.78 34.8
-3 -3 -6 202.88 52.19
-3 3 6 91.89 32.7
3 3 -6 264.17 35.2
3 3 -6 151.68 27.3
-3 5 -6 398.56 58.09
-3 -5 -6 244.58 57.99
-3 -5 -6 295.47 42.9
3 5 -6 303.47 43
3 5 -6 280.27 42
-3 5 6 319.47 64.79
-3 7 -6 736.53 91.99
3 7 -6 743.43 70.59
-3 7 6 576.94 92.59
-3 -7 -6 693.63 100.99
4 0 -6 4821.42 199.28
-4 0 6 4787.12 204.88
4 0 -6 4767.02 183.08
-4 0 -6 4506.65 227.68
-4 0 -6 4742.13 197.88
4 -2 -6 2481.55 125.19
-4 2 -6 2271.57 121.09
-4 2 6 2638.74 136.89
4 2 -6 2331.47 109.59
-4 -2 -6 2412.56 118.49
-4 -2 -6 2397.06 156.78
4 2 -6 2482.75 116.49
-4 4 -6 1861.71 111.69
-4 -4 -6 1902.21 102.89
4 4 -6 1949.9 101.29
-4 4 6 1876.51 130.89
-4 -4 -6 1832.22 141.59
-4 6 -6 593.74 81.39
-4 -6 -6 604.84 58.89
-4 -6 -6 509.35 87.59
4 6 -6 666.33 61.89
-4 6 6 634.64 93.09
-4 8 -6 249.48 61.39
-4 -8 -6 313.27 75.69
-4 8 6 256.57 66.49
4 8 -6 315.07 59.39
-5 -1 6 13.6 14.4
-5 1 -6 15.9 12.1
5 -1 -6 16.4 11.4
5 -1 -6 19.1 14.4
5 1 -6 19.1 13.9
-5 1 6 30.7 17.9
-5 -1 -6 18.7 12.3
-5 -1 -6 36 26.5
5 1 -6 18.6 11.4
5 -3 -6 272.67 44.9
-5 3 -6 272.27 43.1
-5 3 6 159.28 40.8
-5 -3 -6 244.48 36.8
5 3 -6 212.68 32.5
-5 -3 -6 303.97 64.29
-5 5 -6 375.86 58.79
-5 5 6 444.26 75.29
5 5 -6 432.26 53.59
-5 -5 -6 371.96 78.29
-5 -5 -6 431.06 52.29
-5 7 -6 694.03 93.69
5 7 -6 806.42 87.09
-5 -7 -6 774.92 113.39
-5 7 6 571.14 95.29
6 0 -6 1788.12 98.39
-6 0 -6 1824.92 98.49
6 0 -6 1813.72 89.69
-6 0 6 1548.65 103.19
-6 0 -6 1818.42 128.19
-6 2 -6 1430.86 91.69
6 -2 -6 1742.03 103.49
-6 -2 -6 1616.74 124.99
-6 -2 -6 1674.43 90.59
6 2 -6 1560.04 85.39
-6 2 6 1295.87 102.69
-6 4 -6 1088.59 82.69
-6 -4 -6 942.01 100.99
6 4 -6 1030.6 70.39
-6 4 6 1007.9 96.79
-6 6 -6 558.84 78.79
-6 6 6 514.15 83.09
-6 -6 -6 687.43 108.89
6 6 -6 532.45 65.29
7 -1 -6 102.19 23.9
-7 1 -6 101.59 27.9
-7 -1 6 90.79 30.9
-7 1 6 117.79 36.2
-7 -1 -6 119.69 44.1
-7 -1 -6 117.09 26.9
7 1 -6 102.89 25.6
-7 3 -6 123.79 32.4
-7 -3 -6 134.09 46.3
-7 3 6 221.78 52.39
7 3 -6 108.09 27.3
-7 5 -6 396.16 63.69
-7 5 6 334.77 71.49
-7 -5 -6 471.35 90.89
7 5 -6 359.26 51.79
-7 7 -6 373.06 76.59
7 7 -6 365.46 59.29
-7 -7 -6 491.65 99.49
-7 7 6 324.47 78.69
-8 0 6 1714.93 112.29
8 0 -6 1266.97 81.59
-8 0 -6 1530.85 122.99
-8 0 -6 1423.36 126.19
-8 2 -6 1534.15 97.69
-8 2 6 1547.95 116.99
8 2 -6 1544.75 92.29
-8 -2 -6 1478.25 130.59
-8 4 -6 1181.88 90.59
8 4 -6 1006.7 76.29
-8 -4 -6 1042.6 110.59
-8 4 6 1163.08 110.39
-8 6 -6 729.23 95.69
8 6 -6 756.02 71.49
-8 -6 -6 823.62 124.99
-9 -1 6 29.4 28.7
9 1 -6 10.1 16.9
-9 -1 -6 31.2 35.3
-9 1 6 -6.3 20.9
-9 3 -6 59.59 28.1
-9 3 6 61.09 35.7
-9 -3 -6 24.3 32.7
9 3 -6 25.4 18.8
-9 5 6 131.39 52.89
9 5 -6 162.68 41.8
-9 -5 -6 151.18 58.99
10 0 -6 1451.15 93.79
-10 0 6 1517.95 121.39
-10 2 6 924.41 99.89
10 2 -6 945.81 75.09
-10 -2 -6 1108.39 121.79
0 0 -7 -1.1 7.8
0 2 -7 126.39 27.4
0 -2 -7 152.58 30.3
0 2 7 232.68 48.9
0 -4 -7 577.54 55.89
0 4 -7 644.94 57.59
0 4 7 777.82 81.69
0 4 -7 578.94 51.19
0 -6 -7 590.94 72.99
0 6 -7 658.03 65.79
0 6 7 639.34 97.09
0 8 -7 609.44 85.29
0 8 7 611.04 98.09
-1 1 -7 2450.35 123.99
1 -1 -7 2388.66 122.39
1 1 -7 2448.26 123.09
-1 -1 -7 2358.46 122.19
1 -3 -7 1846.32 106.69
-1 3 -7 1868.21 107.09
-1 -3 -7 1832.52 105.29
-1 -3 -7 2039 139.59
1 3 -7 1761.22 101.39
-1 3 7 1797.52 122.09
1 3 -7 1903.31 94.79
-1 5 -7 790.12 69.09
1 5 7 717.03 100.09
1 -5 -7 808.52 70.49
1 5 -7 916.71 68.89
1 5 -7 905.41 70.59
-1 5 7 695.63 97.89
-1 -5 -7 739.73 64.89
-1 -5 -7 902.61 98.39
-1 7 -7 689.03 86.09
1 7 7 602.24 98.79
1 7 -7 657.23 80.79
1 7 -7 615.44 76.69
-1 7 7 508.25 88.99
-2 0 -7 2.9 9.4
2 0 -7 3.5 9.3
-2 2 -7 145.79 31
2 -2 -7 165.68 32.2
-2 -2 -7 147.89 45.6
-2 -2 -7 162.48 30.9
2 2 -7 107.29 21.7
2 2 -7 217.98 36.4
-2 2 7 98.29 32
-2 4 -7 483.75 62.09
2 -4 -7 578.34 56.59
-2 4 7 558.64 81.49
2 4 -7 506.65 49.8
2 4 -7 579.44 49.99
-2 -4 -7 581.84 53.19
-2 -4 -7 564.74 94.69
-2 6 -7 541.95 73.99
2 6 -7 595.64 71.09
-2 -6 -7 652.13 63.59
-2 -6 -7 444.86 86.79
2 6 -7 507.55 68.29
-2 6 7 490.15 88.29
-2 8 -7 545.05 86.79
2 8 7 592.64 95.89
2 8 -7 632.94 83.49
-2 8 7 518.15 93.09
-2 -8 -7 578.44 96.69
3 -1 -7 1210.18 79.59
-3 1 -7 1086.69 75.69
-3 -1 -7 1086.89 99.79
-3 -1 -7 1190.18 77.59
-3 1 7 1382.36 87.39
3 1 -7 1092.19 73.59
3 -3 -7 1480.75 94.39
-3 3 -7 1392.96 91.39
3 3 -7 1365.66 85.79
-3 -3 -7 1397.36 87.79
-3 3 7 1558.54 109.69
3 3 -7 1532.05 81.79
-3 -3 -7 1289.57 119.09
-3 5 -7 1061.09 86.39
3 -5 -7 1066.09 86.99
3 5 -7 937.21 74.29
-3 5 7 1146.39 105.79
3 5 -7 1179.08 81.59
-3 -5 -7 1155.58 81.39
-3 -5 -7 1139.59 115.99
-3 7 -7 672.43 91.39
3 7 -7 825.72 91.29
-3 -7 -7 640.44 108.89
-3 7 7 556.14 95.39
-4 0 -7 -3.5 8.4
4 0 -7 9.1 12.1
-4 2 -7 91.49 25.8
4 -2 -7 83.79 26.5
-4 2 7 111.99 32.8
-4 -2 -7 104.79 42.6
4 2 -7 124.69 25.4
4 2 -7 60.59 20.8
-4 -2 -7 86.19 25.1
-4 4 -7 301.47 49.3
4 -4 -7 416.46 61.69
4 4 -7 448.66 52.79
-4 4 7 368.56 68.79
-4 -4 -7 475.55 48.9
-4 -4 -7 406.56 82.19
-4 6 -7 388.26 64.99
-4 -6 -7 423.36 57.99
4 6 -7 378.06 57.59
-4 6 7 307.67 70.49
-4 -6 -7 378.46 78.59
5 -1 -7 1150.68 81.89
-5 1 -7 1264.87 83.09
-5 -1 -7 1299.17 83.09
5 1 -7 1304.07 72.39
-5 1 7 1208.38 90.79
5 1 -7 1264.07 81.09
-5 -1 -7 1111.19 111.19
5 -3 -7 1425.26 98.59
-5 3 -7 1403.86 94.59
-5 -3 -7 1451.95 88.29
-5 -3 -7 1411.86 127.99
-5 3 7 1336.27 106.29
5 3 -7 1276.47 79.09
-5 5 -7 1056.19 89.79
-5 -5 -7 983.2 76.79
-5 5 7 916.01 99.69
-5 -5 -7 1037.5 113.09
5 5 -7 1052.09 76.39
-5 7 -7 531.85 87.39
5 7 -7 689.13 83.59
-5 7 7 468.15 90.79
-5 -7 -7 598.64 101.89
6 0 -7 -4.1 12.4
6 0 -7 -10.3 21
-6 0 7 2.7 17.3
-6 0 -7 11.4 15.8
6 -2 -7 72.09 27.1
-6 2 -7 56.09 23.7
-6 2 7 31.7 25.3
-6 -2 -7 27.6 18.5
-6 -2 -7 36.3 37.1
6 2 -7 12.4 15.1
-6 4 -7 267.37 50.59
-6 4 7 227.38 56.39
6 4 -7 284.27 43.9
-6 -4 -7 214.48 66.39
-6 6 -7 410.16 72.29
6 6 -7 393.96 58.49
-6 -6 -7 336.47 82.69
-6 6 7 254.37 67.99
-7 1 -7 1727.63 102.19
7 -1 -7 1481.35 89.29
-7 1 7 1601.64 113.29
-7 -1 -7 1626.24 98.29
7 1 -7 1510.25 89.59
-7 -1 -7 1491.15 133.69
-7 3 -7 1357.86 96.69
-7 -3 -7 1465.05 135.09
7 3 -7 1243.58 83.79
-7 3 7 1329.57 113.89
-7 5 -7 709.03 88.29
-7 -5 -7 612.74 105.29
7 5 -7 581.64 67.49
-7 5 7 574.44 96.39
-8 0 7 -12.3 20.3
8 0 -7 -4.9 14.9
-8 0 -7 4 17.9
-8 2 -7 112.29 34.3
8 2 -7 87.39 30
-8 -2 -7 74.39 46.2
-8 2 7 61.89 32.9
-8 4 -7 303.57 57.19
-8 4 7 441.76 85.29
8 4 -7 365.26 53.99
-8 -4 -7 357.86 84.69
-9 1 7 962.3 94.89
9 1 -7 1093.69 78.59
-9 3 -7 983.3 83.49
-9 -3 -7 995.7 140.49
9 3 -7 829.72 74.09
-9 3 7 851.41 99.09
0 0 -8 2145.49 119.39
0 2 8 1464.75 106.79
0 -2 -8 1581.74 98.69
0 2 -8 1514.75 96.39
0 4 -8 1355.16 93.79
0 4 8 1373.26 117.29
0 -4 -8 1427.56 96.69
0 6 -8 466.65 66.59
0 6 -8 592.84 79.19
0 -6 -8 493.05 70.29
0 6 8 493.95 90.19
-1 1 -8 61.59 22.2
1 -1 -8 61.49 22.6
-1 -1 -8 58.89 21.6
1 1 -8 21.9 16.4
1 3 8 136.99 46.5
1 -3 -8 185.08 38.7
-1 3 -8 163.88 34.2
-1 -3 -8 203.48 39.1
-1 3 8 122.69 41.2
1 3 -8 234.48 41.1
1 -5 -8 266.57 50.09
-1 5 -8 290.47 51.79
1 5 8 211.68 61.99
-1 5 8 235.88 61.49
-1 -5 -8 268.77 47.4
1 5 -8 364.16 54.99
1 5 -8 325.37 52.09
1 7 8 499.55 95.79
-1 7 -8 432.96 74.59
1 7 -8 533.05 78.79
-1 7 8 434.66 91.49
1 7 -8 437.66 70.89
2 0 -8 2560.74 134.59
-2 0 -8 2569.34 135.99
2 -2 -8 1810.62 109.39
-2 2 -8 1813.82 106.69
-2 -2 -8 1686.33 130.89
2 2 -8 1784.62 105.29
-2 2 8 1605.84 113.89
-2 -2 -8 1868.21 107.69
2 -4 -8 1123.49 87.09
-2 4 -8 1106.69 87.09
-2 4 8 1202.48 109.39
2 4 -8 1267.67 80.79
2 4 -8 1086.59 81.89
-2 -4 -8 1180.08 85.29
-2 -4 -8 1261.77 121.69
2 6 8 588.84 95.59
-2 6 -8 561.34 79.49
-2 -6 -8 583.74 75.39
-2 6 8 663.73 108.39
-2 -6 -8 582.64 104.09
2 6 -8 467.55 65.69
2 6 -8 586.74 74.89
-3 1 -8 43.7 20
3 -1 -8 84.49 26
3 1 -8 45.4 20
-3 -1 -8 53.19 20.9
-3 3 -8 142.09 34.9
3 -3 -8 141.19 35.1
-3 -3 -8 73.29 41.3
-3 3 8 106.79 39.5
3 3 -8 88.59 24.4
-3 -3 -8 114.19 31
3 3 -8 103.69 29.1
-3 5 -8 461.25 67.09
3 -5 -8 519.55 73.69
-3 -5 -8 422.06 60.39
-3 5 8 552.04 92.59
3 5 -8 484.55 63.69
-3 -5 -8 463.05 90.29
-4 0 -8 1568.14 99.59
4 0 -8 1481.05 97.09
-4 2 -8 1018.4 80.39
4 -2 -8 1199.78 88.09
4 2 -8 1270.47 83.99
-4 -2 -8 1159.58 82.69
-4 2 8 1201.88 94.89
-4 -2 -8 1036.8 113.19
4 -4 -8 779.52 74.39
-4 4 -8 721.13 70.99
-4 -4 -8 853.71 125.19
-4 -4 -8 650.53 63.39
4 4 -8 590.34 55.89
-4 4 8 711.33 99.99
-4 6 -8 341.77 63.79
-4 -6 -8 404.26 60.09
-4 6 8 397.26 87.99
-4 -6 -8 483.55 97.59
4 6 -8 512.45 69.69
-5 1 -8 30.8 20.2
5 -1 -8 46.6 24.5
5 1 -8 23.6 18.4
-5 -1 -8 59.49 24.1
-5 3 -8 58.59 25.8
5 -3 -8 91.19 31.2
5 3 -8 37.3 19.3
-5 -3 -8 70.19 50.29
-5 3 8 162.18 49
-5 -3 -8 79.39 28.1
-5 5 -8 257.87 51.59
-5 -5 -8 244.98 46.8
5 5 -8 238.18 46
-5 5 8 300.47 72.19
-5 -5 -8 245.88 70.79
-6 0 -8 2009.6 119.69
-6 2 -8 1503.55 102.79
6 -2 -8 1654.93 111.69
-6 -2 -8 1601.54 101.79
6 2 -8 1565.84 91.39
-6 2 8 1467.95 116.89
-6 4 -8 1129.19 92.59
-6 4 8 1002.8 107.09
6 4 -8 944.11 73.89
-6 -4 -8 1047.3 123.49
-7 1 -8 14.2 18.5
-7 -1 -8 25.6 21
-7 3 -8 113.69 38.9
-7 3 8 104.39 46.5
-7 -3 -8 172.48 70.79
7 3 -8 118.39 32.5
-8 0 -8 1172.88 90.69
-8 2 -8 998.9 83.89
-8 2 8 896.51 95.59
8 2 -8 963.2 75.39
0 0 -9 -1.1 11.9
0 -2 -9 15.8 17.2
0 2 -9 19 19.5
0 -4 -9 269.87 51.79
0 4 9 337.57 70.99
0 4 -9 206.58 44.6
1 -1 -9 904.61 74.99
-1 1 -9 936.41 76.29
1 1 -9 1014.2 78.89
-1 -1 -9 781.22 71.09
-1 3 -9 991.1 80.39
1 -3 -9 906.51 78.39
-1 -3 -9 877.31 77.29
1 3 -9 983.4 80.09
-1 3 9 957.7 97.39
1 -5 -9 758.12 77.99
-1 5 -9 764.72 77.09
1 5 9 793.32 117.79
1 5 -9 795.92 75.89
-1 -5 -9 677.93 70.69
-1 5 9 807.12 116.29
2 0 -9 -1.3 12.6
-2 0 -9 10.6 14.7
2 -2 -9 94.29 31.1
-2 2 -9 96.09 30.8
2 2 -9 64.09 25.1
-2 -2 -9 111.59 32.9
2 -4 -9 201.68 46.2
-2 4 -9 280.47 50.99
2 4 9 303.37 72.89
-2 4 9 246.08 63.29
2 4 -9 319.67 55.09
-2 -4 -9 290.77 52.99
3 -1 -9 1246.68 91.89
-3 1 -9 1207.98 90.99
3 1 -9 1172.68 87.89
-3 -1 -9 1279.17 92.29
-3 3 -9 1190.48 91.69
3 -3 -9 1118.49 91.09
3 3 -9 1243.88 89.89
-3 3 9 1109.69 105.99
-3 -3 -9 1054.79 86.29
3 -5 -9 819.92 85.19
-3 5 -9 697.43 87.59
-3 5 9 589.64 101.39
-3 -5 -9 717.93 120.09
-3 -5 -9 799.92 77.19
4 0 -9 14.3 18.8
-4 0 -9 10.9 20.1
4 -2 -9 49.3 24.3
-4 2 -9 62.29 28.8
-4 -2 -9 72.59 28.4
4 2 -9 91.59 32
4 -4 -9 280.07 55.99
-4 4 -9 226.88 48.8
-4 4 9 325.37 70.99
-4 -4 -9 338.07 90.29
-4 -4 -9 231.28 46.9
-5 1 -9 1119.79 88.49
5 -1 -9 1052.29 87.59
-5 -1 -9 1076.69 85.49
5 -3 -9 1026.8 91.69
-5 3 -9 1056.99 89.19
-5 -3 -9 1060.69 86.79
-5 3 9 1028.5 103.19
-6 0 -9 0.6 18.4
6 -2 -9 74.79 36.7
-6 2 -9 89.29 32.9
-6 -2 -9 63.29 29.9
0 0 -10 1141.39 91.89
0 -2 -10 850.71 80.19
0 2 -10 911.51 81.59
1 -1 -10 31.1 24.1
-1 1 -10 -12.7 14.5
-1 -1 -10 2.9 15.7
1 1 -10 44 26
1 -3 -10 111.59 37.8
-1 3 -10 113.19 37
-1 -3 -10 92.59 33.9
1 3 -10 125.09 40.3
-2 0 -10 1364.56 104.59
2 0 -10 1580.24 109.19
-2 2 -10 1090.59 91.29
2 -2 -10 1104.99 91.89
-2 -2 -10 1087.99 91.19
2 2 -10 999.5 88.09
3 -1 -10 11 21
-3 1 -10 63.39 30.5
-3 -1 -10 35.4 25.2
3 1 -10 -4.6 20.3
