#------------------------------------------------------------------------------
#$Date: 2019-11-02 07:55:55 +0200 (Sat, 02 Nov 2019) $
#$Revision: 221023 $
#$URL: file:///home/coder/svn-repositories/cod/cif/4/12/78/4127852.cif $
#------------------------------------------------------------------------------
#
# This file is available in the Crystallography Open Database (COD),
# http://www.crystallography.net/
#
# All data on this site have been placed in the public domain by the
# contributors.
#
data_4127852
loop_
_publ_author_name
'Kambe, Tetsuya'
'Hosono, Reina'
'Imaoka, Shotaro'
'Kuzume, Akiyoshi'
'Yamamoto, Kimihisa'
_publ_section_title
;
 Solution Phase Mass Synthesis of 2D Atomic Layer with Hexagonal Boron
 Network.
;
_journal_issue                   33
_journal_name_full               'Journal of the American Chemical Society'
_journal_page_first              12984
_journal_page_last               12988
_journal_paper_doi               10.1021/jacs.9b06110
_journal_volume                  141
_journal_year                    2019
_chemical_absolute_configuration 'CHOOSE rm ad rmad syn or unk'
_chemical_formula_moiety         'B4.27 K O3'
_chemical_formula_sum            'B4.27 K O3'
_chemical_formula_weight         133.26
_space_group_crystal_system      hexagonal
_space_group_IT_number           189
_space_group_name_Hall           'P -6 -2'
_space_group_name_H-M_alt        'P -6 2 m'
_symmetry_space_group_name_Hall  'P -6 -2'
_symmetry_space_group_name_H-M   'P -6 2 m'
_atom_sites_solution_primary     direct
_atom_sites_solution_secondary   difmap
_cell_angle_alpha                90.0000
_cell_angle_beta                 90.0000
_cell_angle_gamma                120.0000
_cell_formula_units_Z            1
_cell_length_a                   6.0720(6)
_cell_length_b                   6.0720(6)
_cell_length_c                   3.4690(3)
_cell_measurement_reflns_used    188
_cell_measurement_temperature    100
_cell_measurement_theta_max      75.79
_cell_measurement_theta_min      12.78
_cell_volume                     110.764(18)
_computing_cell_refinement       'CrysAlisPro 1.171.39.20a (Rigaku OD, 2015)'
_computing_data_collection       'CrysAlisPro 1.171.39.20a (Rigaku OD, 2015)'
_computing_data_reduction        'CrysAlisPro 1.171.39.20a (Rigaku OD, 2015)'
_computing_molecular_graphics    'CrystalStructure 5.0rc6'
_computing_publication_material  'CrystalStructure 5.0rc6 (Rigaku, 2017)'
_computing_structure_refinement  'SHELXL Version 2017/1 (Sheldrick, 2008)'
_computing_structure_solution    'SHELXT Version 2014/5 (Sheldrick, 2014)'
_diffrn_ambient_temperature      100
_diffrn_detector_area_resol_mean 10.000
_diffrn_measured_fraction_theta_full 0.984
_diffrn_measured_fraction_theta_max 1.000
_diffrn_measurement_device_type  'Rigaku XtaLAB Synergy'
_diffrn_measurement_method       \w
_diffrn_radiation_type           'Cu K\a'
_diffrn_radiation_wavelength     1.54184
_diffrn_reflns_av_R_equivalents  0.0224
_diffrn_reflns_Laue_measured_fraction_full 0.984
_diffrn_reflns_Laue_measured_fraction_max 1.000
_diffrn_reflns_limit_h_max       7
_diffrn_reflns_limit_h_min       -5
_diffrn_reflns_limit_k_max       7
_diffrn_reflns_limit_k_min       -5
_diffrn_reflns_limit_l_max       4
_diffrn_reflns_limit_l_min       -3
_diffrn_reflns_number            238
_diffrn_reflns_point_group_measured_fraction_full 0.802
_diffrn_reflns_point_group_measured_fraction_max 0.812
_diffrn_reflns_theta_full        67.590
_diffrn_reflns_theta_max         67.590
_diffrn_reflns_theta_min         8.430
_diffrn_standards_number         0
_exptl_absorpt_coefficient_mu    9.486
_exptl_absorpt_correction_T_max  0.717
_exptl_absorpt_correction_T_min  0.093
_exptl_absorpt_correction_type   multi-scan
_exptl_absorpt_process_details
;
CrysAlisPro 1.171.39.20a (Rigaku Oxford Diffraction, 2015)
Empirical absorption correction using spherical harmonics,
 implemented in SCALE3 ABSPACK scaling algorithm.
;
_exptl_crystal_colour            colourless
_exptl_crystal_density_diffrn    1.998
_exptl_crystal_density_method    'not measured'
_exptl_crystal_description       needle
_exptl_crystal_F_000             64.35
_exptl_crystal_size_max          0.198
_exptl_crystal_size_mid          0.062
_exptl_crystal_size_min          0.035
_refine_diff_density_max         1.13
_refine_diff_density_min         -0.68
_refine_ls_abs_structure_details
;
 Flack x determined using 17 quotients [(I+)-(I-)]/[(I+)+(I-)]
 (Parsons, Flack and Wagner, Acta Cryst. B69 (2013) 249-259).
;
_refine_ls_abs_structure_Flack   0.4(3)
_refine_ls_extinction_method     none
_refine_ls_goodness_of_fit_ref   1.323
_refine_ls_number_parameters     15
_refine_ls_number_reflns         78
_refine_ls_number_restraints     6
_refine_ls_R_factor_all          0.0992
_refine_ls_R_factor_gt           0.0992
_refine_ls_shift/su_max          0.000
_refine_ls_structure_factor_coef Fsqd
_refine_ls_weighting_details
'w = 1/[\s^2^(Fo^2^)+(0.1806P)^2^] where P=(Fo^2^+2Fc^2^)/3'
_refine_ls_weighting_scheme      calc
_refine_ls_wR_factor_gt          0.2218
_refine_ls_wR_factor_ref         0.2218
_reflns_Friedel_coverage         0.279
_reflns_Friedel_fraction_full    0.486
_reflns_Friedel_fraction_max     0.486
_reflns_number_gt                78
_reflns_number_total             78
_reflns_threshold_expression     F^2^>2.0\s(F^2^)
_cod_data_source_file            ja9b06110_si_002.cif
_cod_data_source_block           xcalibur
_cod_database_code               4127852
_shelx_res_file
;
TITL xcalibur
    shelxl.res
    created by SHELXL-2017/1 at 10:58:34 on 24-Nov-2017
REM CONF
CELL  1.54184 6.07200 6.07200 3.46900 90.000 90.000 120.000
ZERR  1 0.00060 0.00060 0.00030 0.000 0.000 0.000
LATT -1
SYMM    -Y,    +X-Y,    +Z
SYMM    -X+Y,    -X,    +Z
SYMM    +X,    +Y,    -Z
SYMM    -Y,    +X-Y,    -Z
SYMM    -X+Y,    -X,    -Z
SYMM    +Y,    +X,    +Z
SYMM    -X,    -X+Y,    +Z
SYMM    +X-Y,    -Y,    +Z
SYMM    +Y,    +X,    -Z
SYMM    -X,    -X+Y,    -Z
SYMM    +X-Y,    -Y,    -Z
SFAC B K O
UNIT 4.27  1  3
SIMU O1 B2
L.S. 5
PLAN -25
SIZE 0.198 0.062 0.035
TEMP -173
WPDB -2
HTAB
LIST 4
fmap 2
acta
SHEL 999 0.83
FMAP 2

BOND $H
WGHT    0.180600
FVAR       4.32738
K1    2   -1.000000   -1.000000   -1.000000    10.08333    0.07052    0.07052 =
         0.04606    0.00000    0.00000    0.03526
PART 1
O1    3   -0.861588   -0.578958   -0.500000    10.25000    0.06340    0.06433 =
         0.05461    0.00000    0.00000   -0.01578
PART 0
B1    1   -0.666667   -0.333333   -0.500000    10.10583    0.08050    0.08050 =
         0.07872    0.00000    0.00000    0.04025
PART 1
B2    1   -0.549429   -0.549429   -0.500000    10.25000    0.13515    0.13515 =
         0.11967    0.00000    0.00000    0.01300
HKLF 4




REM  xcalibur
REM R1 =  0.0992 for      78 Fo > 4sig(Fo)  and  0.0992 for all      78 data
REM     15 parameters refined using      6 restraints

END

WGHT      0.1806      0.0000

REM No hydrogen bonds found for HTAB generation

REM Highest difference peak  1.128,  deepest hole -0.684,  1-sigma level  0.226
Q1    1  -0.9080 -0.9080 -1.0000  10.25000  0.05    1.13
Q2    1  -0.7623 -0.5541 -1.5000  10.50000  0.05    0.41
Q3    1  -0.7567 -0.5726 -1.0000  10.50000  0.05    0.20
Q4    1  -1.4902 -1.0000 -1.0000  10.25000  0.05    0.04
;
_shelx_res_checksum              25648
_shelx_hkl_file
;
  -1   0   0 2062.91   72.17
   1   0   0 2096.73   60.03
   0   0  -1 3196.77   74.58
   2  -1   0 2145.10   91.94
   1  -1   1 9875.66  172.16
   1  -1   1 9837.07  178.31
   1   0   1 9864.59  176.33
   0   1   1 9816.72  168.94
   2   0   0 3538.43   89.43
  -2   2   0 3544.11   45.98
   1  -2   1 5202.07  131.48
   1  -2   1 5152.87  110.02
  -1   2   1 4295.23   87.74
   2   0   1 1675.42   75.50
   2  -2   1 1727.43   84.25
   3  -2   0 3673.17  136.66
   3  -1   0 3612.19  115.27
   3   0   0  504.86   36.60
   0   0   2 9999.00  192.68
   3  -1   1  460.83   43.88
   2   1   1  537.75   31.46
   1  -3   1  539.62   52.42
   3  -2   1  440.18   27.43
   2  -3   1  681.81   68.23
   1  -3   1  571.51   33.92
   3  -2   1  373.31   40.46
   1   0   2  564.92   45.64
   0   1   2  562.82   43.63
   0  -1   2  550.01   47.02
  -1   1   2  581.94   45.77
   1  -1   2  554.38   46.38
   3   0   1 1028.76   45.39
   3   0   1 1006.94   59.06
   3   0  -1 1061.44   45.58
   3  -3   1 1047.80   72.02
   4  -2   0 1111.34   64.57
  -1   2   2  618.57   45.98
   1  -2   2  646.37   45.84
   4  -3   0  331.45   43.80
   4  -3   0  358.77   21.84
   4  -1   0  378.20   36.98
   3   1   0  383.40   24.09
   2  -2   2  807.24   58.07
  -2   2   2  805.55   52.53
   4  -2  -1  215.30   22.35
   4  -2   1  216.07   30.53
   4  -2   1  235.08   21.08
   3   1   1  673.72   31.47
   4  -1   1  602.25   34.16
  -1   4   1  536.87   27.89
   3   1  -1  639.99   30.97
   4  -1  -1  591.27   33.06
   3   1   1  632.68   28.93
   4  -3  -1  564.37   26.78
   4  -3   1  565.71   25.65
  -3   4  -1  542.98   24.55
  -3   4   1  541.90   27.10
   4   0   0  118.32   14.37
  -4   4   0  131.07   12.69
   3  -1   2  875.38   36.58
   1  -3   2  784.14   31.65
   2   1   2  769.37   33.48
  -2   3   2  910.50   46.56
   3  -2   2  870.30   41.41
   2   1   2  852.18   38.57
   1   2   2  820.65   36.34
   1   2   2  746.11   34.26
   3  -1   2  846.84   39.54
  -1   3   2  790.22   39.46
   3   0   2  345.80   23.55
  -3   0   2  296.35   19.24
   0  -3   2  316.35   21.43
  -4   4   1  581.63   27.11
  -4   4  -1  558.24   23.40
   4   0   1  603.24   33.07
   4   0  -1  540.41   30.38
   5  -3   0   89.52   11.50
  -2   5   0   99.29   12.67
   5  -2   0  125.55   16.96
   0   0   3   13.92    5.31
   5  -1   0  509.30   27.68
  -1   5   0  505.86   25.01
   4   1   0  530.80   25.58
   4  -2   2  399.76   24.27
  -2   4   2  315.29   26.30
   4  -2  -2  357.24   28.98
  -2   5   1  310.85   20.30
   5  -2   1  344.69   24.36
  -3   5   1  461.39   27.65
   5  -2  -1  383.23   25.12
  -2   5  -1  383.78   22.46
   5  -3   1  345.28   21.57
  -3   5  -1  399.55   22.43
  -1   0   3  577.16   30.65
   1   0   3  552.86   28.00
   1  -1   3  546.26   29.00
   0   1   3  569.06   28.63
   4  -3   2  139.96   15.21
   3   1  -2  128.58   13.98
   4  -1  -2  118.50   15.96
  -1   4   2  148.87   15.65
   4  -1   2  127.06   12.62
   4  -3  -2  147.68   17.29
   3   1   2  144.95   15.43
  -1   5  -1   26.05    5.79
  -4   5  -1   16.45    4.14
  -1   5   1   18.29    4.55
   4   1   1   24.23    5.48
   5  -1   1   25.02    6.20
  -4   5   1   37.06    9.18
  -1   2   3  363.29   21.31
  -1  -1   3  314.19   23.04
   2  -1   3  318.21   19.85
   2  -1   3  342.70   22.80
   1   1   3  330.28   21.16
  -2   1   3  366.67   22.71
   1  -2   3  363.22   22.86
   1  -2   3  310.50   23.48
   1   1   3  294.10   19.66
   2  -2   3  322.29   23.05
  -2   0   3  314.87   21.08
   0   2   3  306.79   20.50
   2   0   3  335.00   21.06
   2   0   3  307.72   20.01
   0  -2   3  279.45   19.94
  -2   2   3  304.06   18.87
   2  -2   3  288.50   17.91
  -5   5   0  102.34    9.90
   5   0   0   96.15   10.93
   4   0   2   52.65    8.20
  -4   4  -2   60.93    8.34
   4   0  -2   54.30    9.68
  -4   0   2   78.07   11.96
   0  -4   2   57.29    7.93
   6  -3   0  113.18   11.09
  -3   6   0  117.01   10.99
  -5   5   1  124.37   11.39
   5   0  -1  132.28   12.81
   5   0   1  130.56   12.30
   3  -1   3   92.83   10.61
   3  -2   3   89.75    9.22
   2  -3   3  127.98   15.53
   3  -2   3   79.84   11.08
   2   1   3  127.53   13.00
  -2  -1   3   98.39   11.98
  -3   1   3  131.11   12.76
   2  -3   3  119.36   11.07
   1  -3   3  147.13   15.32
   6  -2   0   77.50   10.11
  -2   6   0   92.12    9.33
  -4   6   0   94.66    9.52
   5  -3   2   44.57    7.11
  -3   5  -2   74.74   10.05
  -3   5   2   58.05    9.46
   5  -2   2   54.88    7.15
   5  -3  -2   40.76    7.22
  -2   5   2   60.18    9.45
   5  -2  -2   46.73    8.38
   6  -3  -1   73.51    8.67
  -3   6  -1   75.92    8.74
  -3   6   1   83.56    9.30
   6  -3   1   88.34    9.95
   3  -3   3  129.42   13.03
   0  -3   3  124.83   12.19
   3   0   3  102.67   10.91
  -1   5  -2  224.81   13.58
  -4   5  -2  230.19   13.10
  -1  -4   2  220.59   13.62
   5  -1   2  224.34   14.24
   5  -4   2  225.82   14.82
  -4  -1   2  265.38   16.65
   4   1  -2  219.14   13.32
   5  -1  -2  249.88   17.27
  -4   6  -1   83.19    8.84
   6  -2  -1   81.04    9.44
  -2   6  -1   80.58    8.38
   6  -2   1   78.70    9.89
  -2   6   1   65.80    7.44
   6  -1   0   59.01    7.42
   5   1   0   65.24    6.80
  -5   6   0   49.53    4.99
  -1   6   0   54.89    5.87
  -2  -2   3   64.04    8.50
   4  -2   3   73.96    7.99
   4  -2  -3   65.23   11.02
   6  -1  -1   55.76    6.62
   5   1  -1   50.45    5.21
   5   1   1   46.96    5.42
  -1   6  -1   47.86    5.31
  -5   6   1   63.71    6.67
   6  -1   1   49.07    6.23
  -5   6  -1   60.85    6.31
   4  -1  -3   94.41   11.21
   3  -4   3  120.83   11.20
  -1  -3   3  125.99   11.13
   3   1  -3  132.93   12.47
   4  -1   3  105.72    9.19
  -3  -1   3  111.81    9.74
   4  -3  -3  108.39   11.62
   0   5  -2   50.55    5.20
   5  -5   2   47.19    6.11
   6   0   0   35.97    4.47
   6  -3  -2   42.94    4.93
  -3  -3   2   40.31    4.88
   4   0   3  139.30    9.38
   0  -4   3  142.54    8.92
   4   0  -3  120.06    9.69
   0   0   4  322.70   14.59
   7  -3   0   58.00    5.52
  -3   7   0   56.21    5.02
  -4  -2   2   32.15    3.40
  -4   6  -2   40.52    4.00
  -2   6  -2   40.96    4.97
   6  -2  -2   36.78    4.88
  -2  -4   2   33.17    3.83
  -1   1   4   63.44    5.83
  -1   0   4   66.36    6.80
   1  -1   4   72.40    6.15
   0   1   4   63.49    6.25
   6   0   1   34.51    3.87
   6   0  -1   36.70    3.92
  -2   7   0    6.91    1.50
  -5   7   0    8.60    1.91
   7  -2   0    9.66    2.14
  -3   7  -1   15.35    2.42
  -4   7  -1   14.72    2.57
  -3   7   1   21.65    3.16
  -4   7   1   15.85    2.78
  -3   5  -3   52.37    4.16
   5  -2   3   53.40    4.77
  -3  -2   3   50.37    4.56
   5  -3   3   51.65    4.49
   3  -5   3   74.93    7.14
   2  -5   3   73.28    7.06
   2  -1   4   65.77    5.76
  -1  -1   4   72.81    6.90
   1  -2   4   61.88    5.10
  -2   1   4   60.71    5.08
  -1   6  -2   26.39    2.67
   0  -2   4   42.55    4.34
  -2   0   4   34.12    3.95
  -2   7  -1   35.27    2.73
  -5   7  -1   29.89    2.52
   5  -4   3    5.56    1.46
  -4  -1   3    6.95    1.56
  -1  -4   3    5.80    1.35
  -1   5  -3    3.38    0.92
  -2  -1   4   35.06    2.97
  -1  -2   4   38.30    3.75
   0   0   0    0.00    0.00



_computing_structure_solution     'SHELXT 2014/5 (Sheldrick, 2014)'
_computing_structure_solution     'SHELXT 2014/5 (Sheldrick, 2014)'
_computing_structure_solution     'SHELXT 2014/5 (Sheldrick, 2014)'
;
_shelx_hkl_checksum              63661
loop_
_space_group_symop_id
_space_group_symop_operation_xyz
1 +X,+Y,+Z
2 -Y,+X-Y,+Z
3 -X+Y,-X,+Z
4 +X,+Y,-Z
5 -Y,+X-Y,-Z
6 -X+Y,-X,-Z
7 +Y,+X,+Z
8 -X,-X+Y,+Z
9 +X-Y,-Y,+Z
10 +Y,+X,-Z
11 -X,-X+Y,-Z
12 +X-Y,-Y,-Z
loop_
_atom_site_label
_atom_site_type_symbol
_atom_site_fract_x
_atom_site_fract_y
_atom_site_fract_z
_atom_site_U_iso_or_equiv
_atom_site_adp_type
_atom_site_occupancy
_atom_site_site_symmetry_order
_atom_site_calc_flag
_atom_site_refinement_flags_posn
_atom_site_refinement_flags_adp
_atom_site_refinement_flags_occupancy
_atom_site_disorder_assembly
_atom_site_disorder_group
K1 K -1.000000 -1.000000 -1.000000 0.062(2) Uani 1 12 d S T P . .
O1 O -0.862(4) -0.579(4) -0.500000 0.082(10) Uani 0.5 2 d S TU P A 1
B1 B -0.666667 -0.333333 -0.500000 0.080(9) Uani 0.635 6 d S T P . .
B2 B -0.549(9) -0.549(9) -0.500000 0.15(3) Uani 1 4 d S TU P A 1
loop_
_atom_site_aniso_label
_atom_site_aniso_U_11
_atom_site_aniso_U_22
_atom_site_aniso_U_33
_atom_site_aniso_U_23
_atom_site_aniso_U_13
_atom_site_aniso_U_12
K1 0.071(3) 0.071(3) 0.046(3) 0.000 0.000 0.0353(13)
O1 0.063(13) 0.064(9) 0.055(8) 0.000 0.000 -0.016(9)
B1 0.080(12) 0.080(12) 0.08(2) 0.000 0.000 0.040(6)
B2 0.14(3) 0.14(3) 0.12(3) 0.000 0.000 0.01(3)
loop_
_atom_type_symbol
_atom_type_description
_atom_type_scat_dispersion_real
_atom_type_scat_dispersion_imag
_atom_type_scat_source
_atom_type_scat_dispersion_source
B B 0.0090 0.0040 'International Tables Vol.C Table 6.1.1.4.'
'International Tables Vol.C Table 4.2.6.8.'
K K 0.3870 1.0660 'International Tables Vol.C Table 6.1.1.4.'
'International Tables Vol.C Table 4.2.6.8.'
O O 0.0490 0.0320 'International Tables Vol.C Table 6.1.1.4.'
'International Tables Vol.C Table 4.2.6.8.'
loop_
_geom_angle_atom_site_label_1
_geom_angle_atom_site_label_2
_geom_angle_atom_site_label_3
_geom_angle
_geom_angle_site_symmetry_1
_geom_angle_site_symmetry_3
O1 K1 O1 162.3(11) . 9_434
O1 K1 O1 133.29(19) . 2_344
O1 K1 O1 29.6(10) 9_434 2_344
O1 K1 O1 63.0(12) . 7
O1 K1 O1 133.29(19) 9_434 7
O1 K1 O1 162.3(11) 2_344 7
O1 K1 O1 86.7(4) . 3_435
O1 K1 O1 106.7(7) 9_434 3_435
O1 K1 O1 133.29(19) 2_344 3_435
O1 K1 O1 29.6(10) 7 3_435
O1 K1 O1 29.6(10) . 8_345
O1 K1 O1 133.29(19) 9_434 8_345
O1 K1 O1 106.7(7) 2_344 8_345
O1 K1 O1 86.7(4) 7 8_345
O1 K1 O1 102.1(4) 3_435 8_345
O1 K1 O1 102.1(4) . 9_435
O1 K1 O1 75.1(6) 9_434 9_435
O1 K1 O1 82.7(10) 2_344 9_435
O1 K1 O1 86.7(4) 7 9_435
O1 K1 O1 63.0(12) 3_435 9_435
O1 K1 O1 86.7(4) 8_345 9_435
O1 K1 O1 86.7(4) . 2_345
O1 K1 O1 82.7(10) 9_434 2_345
O1 K1 O1 75.1(6) 2_344 2_345
O1 K1 O1 102.1(4) 7 2_345
O1 K1 O1 86.7(4) 3_435 2_345
O1 K1 O1 63.0(12) 8_345 2_345
O1 K1 O1 29.6(10) 9_435 2_345
O1 K1 O1 133.3(2) . 3_434
O1 K1 O1 63.0(12) 9_434 3_434
O1 K1 O1 86.7(4) 2_344 3_434
O1 K1 O1 82.7(9) 7 3_434
O1 K1 O1 75.1(6) 3_435 3_434
O1 K1 O1 162.3(11) 8_345 3_434
O1 K1 O1 106.7(7) 9_435 3_434
O1 K1 O1 133.29(19) 2_345 3_434
O1 K1 O1 75.1(6) . 1_554
O1 K1 O1 102.1(4) 9_434 1_554
O1 K1 O1 86.7(4) 2_344 1_554
O1 K1 O1 106.7(7) 7 1_554
O1 K1 O1 133.29(19) 3_435 1_554
O1 K1 O1 82.7(9) 8_345 1_554
O1 K1 O1 162.3(11) 9_435 1_554
O1 K1 O1 133.3(2) 2_345 1_554
O1 K1 O1 86.7(4) 3_434 1_554
O1 K1 O1 106.7(7) . 7_554
O1 K1 O1 86.7(4) 9_434 7_554
O1 K1 O1 102.1(4) 2_344 7_554
O1 K1 O1 75.1(6) 7 7_554
O1 K1 O1 82.7(9) 3_435 7_554
O1 K1 O1 133.29(19) 8_345 7_554
O1 K1 O1 133.29(19) 9_435 7_554
O1 K1 O1 162.3(11) 2_345 7_554
O1 K1 O1 29.6(10) 3_434 7_554
O1 K1 O1 63.0(12) 1_554 7_554
O1 K1 O1 82.7(9) . 8_344
O1 K1 O1 86.7(4) 9_434 8_344
O1 K1 O1 63.0(12) 2_344 8_344
O1 K1 O1 133.3(2) 7 8_344
O1 K1 O1 162.3(11) 3_435 8_344
O1 K1 O1 75.1(6) 8_345 8_344
O1 K1 O1 133.29(18) 9_435 8_344
O1 K1 O1 106.7(7) 2_345 8_344
O1 K1 O1 102.1(4) 3_434 8_344
O1 K1 O1 29.6(10) 1_554 8_344
O1 K1 O1 86.7(4) 7_554 8_344
B1 O1 B2 80.0(17) . 3_445
B1 O1 O1 138.7(14) . 8_345
B2 O1 O1 58.8(11) 3_445 8_345
B1 O1 B2 66.4(18) . .
B2 O1 B2 146.3(12) 3_445 .
O1 O1 B2 154.9(16) 8_345 .
B1 O1 K1 133.4(9) . .
B2 O1 K1 120.6(10) 3_445 .
O1 O1 K1 75.2(5) 8_345 .
B2 O1 K1 85.0(15) . .
B1 O1 K1 133.4(9) . 1_556
B2 O1 K1 120.6(10) 3_445 1_556
O1 O1 K1 75.2(5) 8_345 1_556
B2 O1 K1 85.0(15) . 1_556
K1 O1 K1 75.1(6) . 1_556
O1 B1 O1 120.000(2) 3_445 2_455
O1 B1 O1 120.000(3) 3_445 .
O1 B1 O1 120.000(1) 2_455 .
O1 B1 B2 69(2) 3_445 3_445
O1 B1 B2 171(2) 2_455 3_445
O1 B1 B2 51(2) . 3_445
O1 B1 B2 51(2) 3_445 2_455
O1 B1 B2 69(2) 2_455 2_455
O1 B1 B2 171(2) . 2_455
B2 B1 B2 120.000(2) 3_445 2_455
O1 B1 B2 171(2) 3_445 .
O1 B1 B2 51(2) 2_455 .
O1 B1 B2 69(2) . .
B2 B1 B2 120.000(15) 3_445 .
B2 B1 B2 120.000(15) 2_455 .
O1 B2 O1 62(2) 9_545 2_455
O1 B2 B1 49.0(9) 9_545 7
O1 B2 B1 112(3) 2_455 7
O1 B2 B1 112(3) 9_545 .
O1 B2 B1 49.0(9) 2_455 .
B1 B2 B1 161(3) 7 .
O1 B2 O1 156(3) 9_545 .
O1 B2 O1 93.7(12) 2_455 .
B1 B2 O1 155(3) 7 .
B1 B2 O1 44.6(7) . .
O1 B2 O1 93.7(12) 9_545 7
O1 B2 O1 156(3) 2_455 7
B1 B2 O1 44.6(7) 7 7
B1 B2 O1 155(3) . 7
O1 B2 O1 110(3) . 7
O1 B2 K1 136.2(5) 9_545 .
O1 B2 K1 136.2(4) 2_455 .
B1 B2 K1 98.2(14) 7 .
B1 B2 K1 98.2(14) . .
O1 B2 K1 61.1(15) . .
O1 B2 K1 61.1(15) 7 .
O1 B2 K1 136.2(5) 9_545 1_556
O1 B2 K1 136.2(4) 2_455 1_556
B1 B2 K1 98.2(14) 7 1_556
B1 B2 K1 98.2(14) . 1_556
O1 B2 K1 61.1(15) . 1_556
O1 B2 K1 61.1(15) 7 1_556
K1 B2 K1 64.7(10) . 1_556
loop_
_geom_bond_atom_site_label_1
_geom_bond_atom_site_label_2
_geom_bond_distance
_geom_bond_site_symmetry_2
K1 O1 2.846(19) .
K1 O1 2.846(19) 9_434
K1 O1 2.846(19) 2_344
K1 O1 2.846(19) 7
K1 O1 2.846(19) 3_435
K1 O1 2.846(19) 8_345
K1 O1 2.846(19) 9_435
K1 O1 2.846(19) 2_345
K1 O1 2.846(19) 3_434
K1 O1 2.846(19) 1_554
K1 O1 2.846(19) 7_554
K1 O1 2.846(19) 8_344
O1 B1 1.364(16) .
O1 B2 1.40(6) 3_445
O1 O1 1.46(4) 8_345
O1 B2 1.81(4) .
B1 B2 1.778(9) 3_445
B1 B2 1.778(9) 2_455
B1 B2 1.778(9) .
