#------------------------------------------------------------------------------
#$Date: 2016-02-13 21:28:24 +0200 (Sat, 13 Feb 2016) $
#$Revision: 176429 $
#$URL: svn://www.crystallography.net/cod/cif/7/03/67/7036771.cif $
#------------------------------------------------------------------------------
#
# This file is available in the Crystallography Open Database (COD),
# http://www.crystallography.net/
#
# All data on this site have been placed in the public domain by the
# contributors.
#
data_7036771
loop_
_publ_author_name
'Zhao, Dan'
'Zhang, Rong-Hua'
'Li, Fei-Fei'
'Yang, Juan'
'Liu, Bing-Guo'
'Fan, Yun-Chang'
_publ_section_title
;
 (3 + 1)-Dimensional commensurately modulated structure and
 photoluminescence properties of diborate KSbOB2O5.
;
_journal_issue                   13
_journal_name_full
'Dalton transactions (Cambridge, England : 2003)'
_journal_page_first              6277
_journal_page_last               6287
_journal_paper_doi               10.1039/c5dt00267b
_journal_volume                  44
_journal_year                    2015
_chemical_formula_sum            'B2 K O6 Sb'
_chemical_formula_weight         278.5
_space_group_IT_number           31
_space_group_ssg_name            Pmn21(0\b0)s00
_symmetry_cell_setting           orthorhombic
_symmetry_space_group_name_Hall  'P 2ac -2'
_symmetry_space_group_name_H-M   'P m n 21'
_cell_angle_alpha                90
_cell_angle_beta                 90
_cell_angle_gamma                90
_cell_formula_units_Z            2
_cell_length_a                   7.1133(5)
_cell_length_b                   3.6883(10)
_cell_length_c                   9.4096(14)
_cell_measurement_temperature    293
_cell_modulation_dimension       1
_cell_volume                     246.87(8)
_diffrn_ambient_temperature      293
_diffrn_measured_fraction_theta_full 1
_diffrn_measured_fraction_theta_max 1
_diffrn_measurement_device       'four-cycle diffractometer'
_diffrn_measurement_device_type  'Bruker CCD'
_diffrn_radiation_monochromator  graphite
_diffrn_radiation_probe          x-ray
_diffrn_radiation_source         'X-ray tube'
_diffrn_radiation_type           'Mo K\a'
_diffrn_radiation_wavelength     0.71073
_diffrn_reflns_av_R_equivalents  0.0422
_diffrn_reflns_av_unetI/netI     0.034
_diffrn_reflns_limit_h_max       9
_diffrn_reflns_limit_h_min       -9
_diffrn_reflns_limit_index_m_1_max 1
_diffrn_reflns_limit_index_m_1_min -1
_diffrn_reflns_limit_k_max       5
_diffrn_reflns_limit_k_min       -5
_diffrn_reflns_limit_l_max       12
_diffrn_reflns_limit_l_min       -12
_diffrn_reflns_number            6528
_diffrn_reflns_theta_full        28.27
_diffrn_reflns_theta_max         28.27
_diffrn_reflns_theta_min         3.59
_exptl_absorpt_coefficient_mu    6.382
_exptl_absorpt_correction_type   multi-scan
_exptl_crystal_density_diffrn    3.7461
_exptl_crystal_F_000             256
_refine_diff_density_max         0.78
_refine_diff_density_min         -1.05
_refine_ls_abs_structure_details
'  843 of Friedel pairs used in the refinement'
_refine_ls_extinction_coef       40(60)
_refine_ls_extinction_method
'B-C type 1 Gaussian isotropic (Becker & Coppens, 1974)'
_refine_ls_goodness_of_fit_gt    1.18
_refine_ls_goodness_of_fit_ref   1.14
_refine_ls_number_constraints    1
_refine_ls_number_parameters     121
_refine_ls_number_reflns         1794
_refine_ls_number_restraints     2
_refine_ls_R_factor_all          0.0483
_refine_ls_R_factor_gt           0.0358
_refine_ls_shift/su_max          0.0068
_refine_ls_shift/su_mean         0.0006
_refine_ls_structure_factor_coef F
_refine_ls_weighting_details     w=1/(\s^2^(F)+0.0009F^2^)
_refine_ls_weighting_scheme      sigma
_refine_ls_wR_factor_gt          0.0489
_refine_ls_wR_factor_ref         0.0532
_reflns_number_gt                1419
_reflns_number_total             1794
_reflns_threshold_expression     I>3\s(I)
_cod_data_source_file            c5dt00267b1.cif
_cod_data_source_block           I
_cod_depositor_comments          'Adding full bibliography for 7036771.cif.'
_cod_original_formula_sum        'B2 K1 O6 Sb1'
_cod_database_code               7036771
#BEGIN Tags that were not found in dictionaries:
_publcif_datablock.id            {440c7ef7-74ba-4abb-8fd6-eb8b744d504a}
_jana_cell_commen_supercell_matrix_1_1 1
_jana_cell_commen_supercell_matrix_1_2 0
_jana_cell_commen_supercell_matrix_1_3 0
_jana_cell_commen_supercell_matrix_2_1 0
_jana_cell_commen_supercell_matrix_2_2 12
_jana_cell_commen_supercell_matrix_2_3 0
_jana_cell_commen_supercell_matrix_3_1 0
_jana_cell_commen_supercell_matrix_3_2 0
_jana_cell_commen_supercell_matrix_3_3 1
_jana_cell_commen_t_section_1    0
_publcif_info_exptl_table_max_cols 4
_publcif_info_exptl_table_use_headnotes n
#END Tags that were not found in dictionaries
loop_
_space_group_symop_id
_space_group_symop_operation_xyz
1 x,y,z
2 -x+0.5,-y,z+0.5
3 x+0.5,-y,z+0.5
4 -x,y,z
loop_
_space_group_symop_ssg_id
_space_group_symop_ssg_operation_algebraic
1 x1,x2,x3,x4
2 -x1+1/2,-x2,x3+1/2,-x4+1/2
3 x1+1/2,-x2,x3+1/2,-x4
4 -x1,x2,x3,x4+1/2
loop_
_atom_site_label
_atom_site_type_symbol
_atom_site_fract_x
_atom_site_fract_y
_atom_site_fract_z
_atom_site_adp_type
_atom_site_U_iso_or_equiv
_atom_site_site_symmetry_multiplicity
_atom_site_occupancy
_atom_site_calc_flag
Sb1 Sb 0.5 0.94763(11) 0.00219(7) Uani 0.0062(2) 2 1 d
K1 K 1 0.4849(6) -0.0888(3) Uani 0.0245(7) 2 1 d
O1 O 0.4320(13) 1.448(2) 0.0222(17) Uani 0.019(3) 4 0.5 d
O2 O 0.6939(9) 0.9561(18) -0.1438(7) Uani 0.0276(19) 4 1 d
O3 O 0.6911(8) 0.9338(16) 0.1320(7) Uani 0.0043(15) 4 1 d
O4 O 0.9437(7) 0.952(3) 0.1567(10) Uani 0.015(2) 4 0.5 d
B1 B 0.8307(11) 0.982(2) 0.2179(8) Uani 0.011(3) 4 1 d
loop_
_atom_site_aniso_label
_atom_site_aniso_type_symbol
_atom_site_aniso_U_11
_atom_site_aniso_U_22
_atom_site_aniso_U_33
_atom_site_aniso_U_12
_atom_site_aniso_U_13
_atom_site_aniso_U_23
Sb1 Sb 0.0099(2) 0.0057(2) 0.0030(6) 0 0 0.0013(5)
K1 K 0.0193(10) 0.0151(10) 0.0392(14) 0 0 -0.0034(9)
O1 O 0.007(4) 0.008(3) 0.041(7) 0.006(3) -0.004(7) 0.008(6)
O2 O 0.025(3) 0.053(4) 0.005(3) 0.004(3) 0.004(2) -0.009(3)
O3 O -0.005(2) 0.017(3) 0.001(3) -0.002(2) 0.0109(19) 0.002(2)
O4 O -0.016(3) 0.048(5) 0.013(3) 0.001(3) -0.001(3) -0.001(3)
B1 B 0.014(5) 0.029(4) -0.011(3) 0.005(3) 0.013(3) 0.005(3)
loop_
_atom_site_displace_Fourier_atom_site_label
_atom_site_displace_Fourier_axis
_atom_site_displace_Fourier_wave_vector_seq_id
_atom_site_displace_Fourier_param_cos
_atom_site_displace_Fourier_param_sin
Sb1 x 1 -0.00359(8) 0.02605(8)
Sb1 y 1 0 0
Sb1 z 1 0 0
Sb1 x 2 0 0
Sb1 y 2 -0.0003(5) -0.0012(5)
Sb1 z 2 0.0052(8) 0.0103(4)
K1 x 1 0.0139(4) -0.0279(4)
K1 y 1 0 0
K1 z 1 0 0
O2 x 1 -0.0156(10) -0.0195(9)
O2 y 1 -0.071(3) -0.047(2)
O2 z 1 -0.0077(8) -0.0407(8)
O2 x 2 0.0013(18) -0.0068(18)
O2 y 2 -0.008(4) 0.023(4)
O2 z 2 0.0010(12) 0.0032(12)
O3 x 1 0.0087(12) 0.0969(9)
O3 y 1 -0.129(3) -0.046(2)
O3 z 1 -0.0082(11) -0.0592(8)
O3 x 2 0.0197(16) -0.0069(11)
O3 y 2 0.021(3) -0.015(3)
O3 z 2 -0.0151(11) 0.0064(10)
O3 x 3 0.0175(15) 0.0179(14)
O3 y 3 0.009(4) 0.045(3)
O3 z 3 -0.0070(14) -0.0157(13)
B1 x 1 0.003(2) 0.0675(14)
B1 y 1 -0.056(3) -0.006(3)
B1 z 1 -0.0035(13) -0.0314(11)
B1 x 2 0.003(2) -0.0014(17)
B1 y 2 0.010(5) 0.004(4)
B1 z 2 0.0023(16) -0.0022(16)
loop_
_atom_site_Fourier_wave_vector_seq_id
_jana_atom_site_fourier_wave_vector_q1_coeff
1 1
2 2
3 3
loop_
_atom_site_occ_special_func_atom_site_label
_atom_site_occ_special_func_crenel_c
_atom_site_occ_special_func_crenel_w
O1 0.833 0.5
O4 0.6947 0.5
loop_
_atom_type_symbol
_atom_type_scat_dispersion_real
_atom_type_scat_dispersion_imag
_atom_type_scat_source
B 0.0013 0.0007 'International Tables Vol C tables 4.2.6.8 and 6.1.1.1'
K 0.2009 0.2494 'International Tables Vol C tables 4.2.6.8 and 6.1.1.1'
O 0.0106 0.0060 'International Tables Vol C tables 4.2.6.8 and 6.1.1.1'
Sb -0.5866 1.5461 'International Tables Vol C tables 4.2.6.8 and 6.1.1.1'
loop_
_cell_wave_vector_seq_id
_cell_wave_vector_x
_cell_wave_vector_y
_cell_wave_vector_z
1 0.000000 0.416667 0.000000
loop_
_geom_bond_atom_site_label_1
_geom_bond_atom_site_label_2
_geom_bond_site_ssg_symmetry_2
_geom_bond_distance_av
_geom_bond_distance_min
_geom_bond_distance_max
Sb1 O1 1_5455 1.96(3) 1.91(4) 2.03(4)
Sb1 O1 . 1.94(3) 1.91(4) 1.98(4)
Sb1 O1 4_6455 1.96(3) 1.91(4) 2.03(4)
Sb1 O1 4_6555 1.94(3) 1.91(4) 1.98(4)
Sb1 O2 . 1.99(2) 1.94(2) 2.06(2)
Sb1 O2 4_6555 1.99(2) 1.94(2) 2.06(2)
Sb1 O3 . 1.96(3) 1.82(3) 2.06(3)
Sb1 O3 4_6555 1.96(3) 1.82(3) 2.06(3)
K1 O1 1_6455 3.11(3) 2.76(3) 3.60(3)
K1 O1 4_6455 3.11(3) 2.76(3) 3.60(3)
K1 O2 1_5455 2.99(2) 2.76(2) 3.19(2)
K1 O2 . 2.87(2) 2.72(2) 3.10(2)
K1 O2 4_7455 2.99(2) 2.76(2) 3.19(2)
K1 O2 4_7555 2.87(2) 2.72(2) 3.10(2)
K1 O3 1_5455 3.70(3) 2.71(3) 4.46(3)
K1 O3 . 3.48(3) 2.77(3) 4.33(3)
K1 O3 2_6645 3.38(3) 2.73(3) 4.17(3)
K1 O3 2_6745 3.70(3) 2.84(3) 4.36(3)
K1 O3 3_5645 3.38(3) 2.73(3) 4.17(3)
K1 O3 3_5745 3.70(3) 2.84(3) 4.36(3)
K1 O3 4_7455 3.70(3) 2.71(3) 4.46(3)
K1 O3 4_7555 3.48(3) 2.77(3) 4.33(3)
K1 O4 1_5455 3.09(3) 2.96(4) 3.16(4)
K1 O4 . 2.91(3) 2.89(4) 2.94(4)
K1 O4 4_7455 3.09(3) 2.96(4) 3.16(4)
K1 O4 4_7555 2.91(3) 2.89(4) 2.94(4)
B1 O2 2_6755 1.37(3) 1.27(4) 1.43(4)
B1 O3 . 1.36(4) 1.25(4) 1.44(4)
B1 O4 . 1.36(4) 1.32(4) 1.40(4)
B1 O4 4_7555 1.37(3) 1.36(4) 1.41(4)
loop_
_refln_index_h
_refln_index_k
_refln_index_l
_refln_index_m_1
_refln_F_squared_calc
_refln_F_squared_meas
_refln_F_squared_sigma
_refln_observed_status
1 0 0 1 16.48 23.57 1.78 o
2 0 0 0 8878.50 9384.86 127.02 o
2 0 0 1 0.86 2.65 2.06 <
3 0 0 1 481.66 463.98 7.77 o
4 0 0 0 6456.83 6016.47 92.89 o
4 0 0 1 1.34 8.56 3.90 <
5 0 0 1 634.00 570.33 14.64 o
6 0 0 0 1536.35 1395.24 38.03 o
6 0 0 1 0.31 5.25 5.44 <
7 0 0 1 707.39 710.98 19.87 o
8 0 0 0 658.51 620.18 29.45 o
8 0 0 1 1.12 4.40 6.85 <
9 0 0 1 646.98 560.71 21.37 o
0 1 0 0 11239.60 11488.80 123.50 o
1 1 0 -1 41.08 37.98 2.13 o
1 1 0 0 719.92 731.72 9.76 o
1 1 0 1 363.99 381.07 6.12 o
2 1 0 -1 23.30 29.06 2.78 o
2 1 0 0 611.55 671.16 9.64 o
2 1 0 1 9.78 7.31 2.27 o
3 1 0 -1 33.95 55.24 3.72 o
3 1 0 0 310.45 343.52 6.85 o
3 1 0 1 38.06 34.11 3.42 o
4 1 0 -1 93.56 109.83 5.89 o
4 1 0 0 1614.52 1492.94 20.19 o
4 1 0 1 7.63 7.94 2.81 <
5 1 0 -1 54.45 62.69 7.17 o
5 1 0 0 343.14 319.74 12.22 o
5 1 0 1 60.03 40.96 6.48 o
6 1 0 -1 192.24 145.39 10.40 o
6 1 0 0 601.35 574.94 17.33 o
6 1 0 1 9.02 21.73 7.68 <
7 1 0 -1 219.33 218.76 12.98 o
7 1 0 0 146.37 140.69 11.65 o
7 1 0 1 320.83 312.76 17.77 o
8 1 0 -1 151.84 146.79 12.21 o
8 1 0 0 265.89 240.49 17.54 o
8 1 0 1 4.68 21.80 9.35 <
9 1 0 -1 299.95 335.31 20.57 o
9 1 0 0 27.19 29.86 10.53 <
9 1 0 1 279.11 259.19 19.90 o
0 2 0 0 11339.90 11831.30 131.92 o
1 2 0 -1 197.30 188.38 5.00 o
1 2 0 0 1726.49 1747.48 19.46 o
1 2 0 1 32.75 42.14 4.17 o
2 2 0 -1 221.36 241.41 6.29 o
2 2 0 0 5028.32 4968.90 44.00 o
2 2 0 1 36.53 29.33 5.65 o
3 2 0 -1 140.23 133.63 5.45 o
3 2 0 0 813.07 837.61 15.08 o
3 2 0 1 477.79 504.91 13.91 o
4 2 0 -1 119.77 127.43 5.72 o
4 2 0 0 2437.72 2303.19 34.26 o
4 2 0 1 113.87 106.42 8.74 o
5 2 0 -1 204.18 210.98 12.35 o
5 2 0 0 571.99 547.22 19.70 o
5 2 0 1 319.73 281.20 15.80 o
6 2 0 -1 139.15 151.44 13.39 o
6 2 0 0 942.60 959.83 28.19 o
6 2 0 1 134.67 124.14 13.28 o
7 2 0 -1 365.25 305.61 17.99 o
7 2 0 0 268.42 286.94 18.33 o
7 2 0 1 464.05 460.61 22.08 o
8 2 0 -1 88.35 70.62 12.19 o
8 2 0 0 296.83 312.36 20.96 o
8 2 0 1 94.76 129.09 16.23 o
0 3 0 0 340.30 344.76 22.00 o
1 3 0 -1 4.29 -2.66 3.87 <
1 3 0 0 1906.49 1925.29 31.65 o
1 3 0 1 31.71 66.47 9.45 o
2 3 0 -1 153.57 166.85 9.55 o
2 3 0 0 235.49 264.58 12.48 o
2 3 0 1 17.62 20.50 7.36 <
3 3 0 -1 1.89 7.94 4.86 <
3 3 0 0 1619.67 1693.10 30.74 o
3 3 0 1 9.40 8.88 6.12 <
4 3 0 -1 186.22 184.03 10.41 o
4 3 0 0 125.09 117.43 9.69 o
4 3 0 1 82.32 88.44 9.50 o
5 3 0 -1 1.67 6.29 6.81 <
5 3 0 0 1153.84 1046.75 29.89 o
5 3 0 1 16.71 14.64 8.38 <
6 3 0 -1 399.97 407.11 19.76 o
6 3 0 0 101.51 108.82 14.11 o
6 3 0 1 144.49 146.34 15.72 o
7 3 0 -1 33.98 35.10 10.77 o
7 3 0 0 542.29 528.70 29.63 o
8 3 0 -1 368.98 342.56 22.42 o
0 4 0 0 556.52 540.52 31.79 o
1 4 0 -1 0.80 4.36 6.23 <
1 4 0 0 1478.59 1481.42 36.97 o
1 4 0 1 0.96 0.74 7.15 <
2 4 0 -1 118.27 135.75 12.49 o
2 4 0 0 435.57 467.25 21.43 o
2 4 0 1 49.62 46.03 10.49 o
3 4 0 -1 13.48 11.16 6.62 <
3 4 0 0 1156.59 1201.14 34.26 o
3 4 0 1 42.28 50.26 11.22 o
4 4 0 -1 133.44 134.94 11.25 o
4 4 0 0 213.88 225.90 17.60 o
4 4 0 1 112.72 86.11 13.53 o
5 4 0 -1 4.79 4.73 7.10 <
5 4 0 0 653.20 593.23 39.32 o
6 4 0 -1 157.01 178.38 17.32 o
1 5 0 -1 0.44 -0.29 7.46 <
2 5 0 -1 47.17 52.58 11.32 o
3 5 0 -1 5.02 -6.69 7.98 <
1 0 1 0 6012.29 6526.24 64.69 o
1 0 -1 0 6073.78 6419.13 86.85 o
1 0 1 1 5.53 7.11 1.31 o
1 0 -1 1 5.40 4.57 2.31 <
2 0 1 1 146.80 161.67 3.68 o
2 0 -1 1 155.88 143.46 4.55 o
3 0 1 0 2474.19 2456.39 33.10 o
3 0 -1 0 2280.32 2582.19 43.25 o
3 0 1 1 78.65 89.67 3.53 o
3 0 -1 1 76.22 92.54 4.72 o
4 0 1 1 576.11 513.88 9.09 o
4 0 -1 1 567.41 527.67 12.16 o
5 0 1 0 1579.65 1672.24 39.50 o
5 0 -1 0 1628.70 1607.48 37.96 o
5 0 1 1 64.03 70.64 7.25 o
5 0 -1 1 66.19 87.49 7.91 o
6 0 1 1 367.20 338.10 13.79 o
6 0 -1 1 334.45 362.59 13.61 o
7 0 1 0 624.14 581.03 27.20 o
7 0 -1 0 580.86 597.72 26.50 o
7 0 1 1 29.72 22.36 7.15 o
7 0 -1 1 28.41 22.18 6.56 o
8 0 1 1 289.41 279.83 15.29 o
8 0 -1 1 284.33 311.96 15.74 o
9 0 1 0 269.77 255.50 23.78 o
9 0 -1 0 258.23 221.37 22.85 o
9 0 1 1 8.63 13.05 8.56 <
9 0 -1 1 9.25 5.65 8.07 <
0 1 1 0 1142.82 1121.75 17.07 o
0 1 -1 0 1126.58 1158.72 20.92 o
1 1 1 -1 19.09 20.89 1.97 o
1 1 -1 -1 19.09 17.72 2.95 o
1 1 1 0 9262.73 9566.88 78.09 o
1 1 -1 0 9551.17 9175.62 97.58 o
1 1 1 1 22.97 18.79 2.90 o
1 1 -1 1 23.75 14.83 2.99 o
2 1 1 -1 230.26 260.20 4.47 o
2 1 -1 -1 248.83 231.38 5.52 o
2 1 1 0 259.64 265.30 5.56 o
2 1 -1 0 254.72 261.36 7.76 o
2 1 1 1 62.79 73.30 3.97 o
2 1 -1 1 74.01 58.72 4.73 o
3 1 1 -1 15.72 14.54 2.13 o
3 1 -1 -1 14.97 15.64 2.41 o
3 1 1 0 4919.82 4970.76 43.00 o
3 1 -1 0 4902.41 5019.79 42.50 o
3 1 1 1 30.06 32.64 3.01 o
3 1 -1 1 32.91 31.44 4.39 o
4 1 1 -1 550.46 521.03 7.32 o
4 1 -1 -1 544.13 517.70 9.96 o
4 1 1 0 387.66 373.77 7.95 o
4 1 -1 0 379.51 386.43 8.27 o
4 1 1 1 634.52 649.78 10.01 o
4 1 -1 1 645.98 638.88 10.14 o
5 1 1 -1 52.08 52.38 7.03 o
5 1 -1 -1 52.00 50.58 6.55 o
5 1 1 0 3749.68 4101.13 55.99 o
5 1 -1 0 3853.43 3966.30 45.14 o
5 1 1 1 39.29 34.80 6.98 o
5 1 -1 1 38.08 34.19 6.90 o
6 1 1 -1 614.34 639.46 17.54 o
6 1 -1 -1 594.96 643.00 17.06 o
6 1 1 0 118.47 125.59 10.58 o
6 1 -1 0 127.67 130.55 8.33 o
6 1 1 1 592.63 586.95 19.08 o
6 1 -1 1 573.77 617.93 18.72 o
7 1 1 -1 47.40 34.96 7.64 o
7 1 -1 -1 45.88 36.25 7.27 o
7 1 1 0 1219.16 1188.02 29.58 o
7 1 -1 0 1198.75 1166.52 28.14 o
7 1 1 1 22.00 33.15 9.43 o
7 1 -1 1 24.07 31.50 9.44 o
8 1 1 -1 588.52 629.13 20.79 o
8 1 -1 -1 597.66 609.81 17.77 o
8 1 1 0 66.70 37.44 9.27 o
8 1 -1 0 63.83 66.45 12.09 o
8 1 1 1 652.23 682.15 25.90 o
8 1 -1 1 654.53 659.98 25.18 o
9 1 1 -1 68.52 47.80 10.37 o
9 1 -1 -1 64.11 44.86 10.59 o
9 1 1 0 363.99 348.37 21.75 o
9 1 -1 0 359.96 328.35 20.96 o
9 1 1 1 32.81 51.88 12.12 o
9 1 -1 1 32.78 73.64 13.01 o
0 2 1 0 3491.51 3420.30 41.14 o
0 2 -1 0 3474.79 3461.44 46.71 o
1 2 1 -1 299.79 316.51 6.72 o
1 2 -1 -1 299.47 314.75 7.66 o
1 2 1 0 1745.74 1790.75 18.64 o
1 2 -1 0 1735.54 1840.21 20.70 o
1 2 1 1 10.85 8.04 4.29 <
1 2 -1 1 12.28 3.50 3.19 <
2 2 1 -1 86.62 89.71 4.43 o
2 2 -1 -1 90.73 82.33 5.16 o
2 2 1 0 1835.68 1869.34 23.88 o
2 2 -1 0 1820.39 1877.00 24.45 o
2 2 1 1 38.60 40.05 5.88 o
2 2 -1 1 37.99 54.99 4.94 o
3 2 1 -1 150.50 159.05 5.55 o
3 2 -1 -1 157.09 159.82 7.33 o
3 2 1 0 1121.27 1002.73 18.77 o
3 2 -1 0 1054.23 1050.98 17.24 o
3 2 1 1 35.85 36.83 6.09 o
3 2 -1 1 36.96 31.47 5.77 o
4 2 1 -1 171.17 157.54 7.74 o
4 2 -1 -1 162.26 162.71 8.06 o
4 2 1 0 1059.05 971.96 18.68 o
4 2 -1 0 1050.25 981.38 18.13 o
4 2 1 1 202.82 202.47 10.68 o
4 2 -1 1 207.42 203.88 10.39 o
5 2 1 -1 415.38 445.04 15.68 o
5 2 -1 -1 416.62 429.92 15.56 o
5 2 1 0 582.37 599.73 20.70 o
5 2 -1 0 590.26 584.72 20.39 o
5 2 1 1 42.17 37.69 8.86 o
5 2 -1 1 41.63 42.39 9.05 o
6 2 1 -1 183.42 182.59 13.91 o
6 2 -1 -1 168.97 186.77 13.53 o
6 2 1 0 397.27 407.59 18.88 o
6 2 -1 0 418.39 388.27 18.76 o
6 2 1 1 157.31 141.24 13.82 o
6 2 -1 1 141.22 155.10 14.59 o
7 2 1 -1 221.67 243.36 16.47 o
7 2 -1 -1 231.06 215.61 16.15 o
7 2 1 0 283.91 238.63 17.01 o
7 2 -1 0 261.39 255.39 17.93 o
7 2 1 1 63.86 59.44 11.52 o
7 2 -1 1 62.36 71.61 12.73 o
8 2 1 -1 111.93 184.51 16.93 o
8 2 -1 -1 110.46 166.64 16.50 o
8 2 1 0 169.21 162.10 17.14 o
8 2 -1 0 166.31 165.95 16.73 o
8 2 1 1 132.69 99.68 15.14 o
8 2 -1 1 126.01 140.65 16.40 o
0 3 1 0 1572.25 1559.98 47.29 o
0 3 -1 0 1565.24 1576.34 38.86 o
1 3 1 -1 46.66 53.06 6.80 o
1 3 -1 -1 47.28 48.81 4.84 o
1 3 1 0 1514.87 1603.44 33.79 o
1 3 -1 0 1555.25 1485.17 27.42 o
1 3 1 1 5.12 8.46 5.80 <
1 3 -1 1 6.71 15.61 6.82 <
2 3 1 -1 46.21 40.61 6.02 o
2 3 -1 -1 49.20 37.62 6.38 o
2 3 1 0 1526.48 1558.43 28.99 o
2 3 -1 0 1497.00 1610.44 29.12 o
2 3 1 1 18.95 25.96 7.65 o
2 3 -1 1 19.57 29.86 6.55 o
3 3 1 -1 9.61 11.45 5.07 <
3 3 -1 -1 8.69 18.44 5.26 o
3 3 1 0 1195.01 1198.74 25.21 o
3 3 -1 0 1205.73 1153.23 24.75 o
3 3 1 1 70.18 55.70 9.33 o
3 3 -1 1 70.13 39.94 7.58 o
4 3 1 -1 89.82 85.35 8.22 o
4 3 -1 -1 88.81 96.25 8.58 o
4 3 1 0 982.86 929.08 22.74 o
4 3 -1 0 977.50 949.81 22.67 o
4 3 1 1 137.16 163.14 11.96 o
4 3 -1 1 146.16 138.27 11.34 o
5 3 1 -1 123.67 136.24 13.07 o
5 3 -1 -1 124.49 123.44 12.85 o
5 3 1 0 751.38 779.45 25.77 o
5 3 -1 0 771.05 764.86 25.72 o
5 3 1 1 99.80 103.15 11.91 o
5 3 -1 1 104.05 124.91 13.56 o
6 3 1 -1 137.43 138.50 13.95 o
6 3 -1 -1 134.26 175.62 15.14 o
6 3 1 0 592.13 582.64 28.39 o
6 3 -1 0 602.14 588.60 24.38 o
6 3 1 1 190.23 173.16 16.67 o
6 3 -1 1 186.59 182.25 17.23 o
7 3 1 -1 170.22 161.46 16.67 o
7 3 -1 -1 174.55 169.75 16.74 o
7 3 1 0 304.20 301.33 20.26 o
7 3 -1 0 301.78 262.50 20.02 o
8 3 1 -1 107.45 128.33 16.31 o
8 3 -1 -1 109.87 116.58 16.13 o
0 4 1 0 2261.66 2251.07 65.93 o
0 4 -1 0 2271.39 2109.93 64.48 o
1 4 1 -1 55.55 47.32 8.87 o
1 4 -1 -1 56.42 47.99 9.05 o
1 4 1 0 42.99 34.72 9.21 o
1 4 -1 0 36.22 38.01 9.18 o
1 4 1 1 9.50 4.05 7.71 <
1 4 -1 1 9.88 17.82 8.46 <
2 4 1 -1 1.35 3.75 6.58 <
2 4 -1 -1 1.23 -1.55 5.51 <
2 4 1 0 2155.63 2242.05 47.65 o
2 4 -1 0 2140.92 2267.91 47.89 o
2 4 1 1 4.47 11.78 8.34 <
2 4 -1 1 4.10 12.68 8.69 <
3 4 1 -1 211.55 208.05 15.32 o
3 4 -1 -1 209.24 229.27 13.52 o
3 4 1 0 31.44 17.56 8.04 <
3 4 -1 0 26.08 26.24 9.11 <
3 4 1 1 77.26 66.27 12.44 o
3 4 -1 1 76.84 57.89 11.31 o
4 4 1 -1 5.65 8.19 6.61 <
4 4 -1 -1 5.22 4.10 6.07 <
4 4 1 0 1096.31 1102.19 37.93 o
4 4 -1 0 1102.38 997.53 29.34 o
4 4 1 1 5.26 0.76 8.64 <
4 4 -1 1 5.97 6.37 8.71 <
5 4 1 -1 272.44 281.35 17.29 o
5 4 -1 -1 282.38 260.57 17.68 o
5 4 1 0 13.13 31.35 12.03 <
5 4 -1 0 10.35 3.73 10.00 <
6 4 1 -1 10.75 2.20 8.68 <
6 4 -1 -1 10.23 6.07 9.17 <
1 5 1 -1 1.74 -7.17 7.28 <
1 5 -1 -1 2.03 -3.21 7.71 <
2 5 1 -1 2.29 -7.86 7.73 <
2 5 -1 -1 1.97 -1.42 7.82 <
3 5 1 -1 41.43 41.12 10.79 o
3 5 -1 -1 37.82 51.47 11.34 o
0 0 2 0 8300.05 7728.41 119.68 o
0 0 -2 0 8255.15 7893.02 163.72 o
1 0 2 1 283.68 281.24 4.59 o
1 0 -2 1 281.24 286.52 5.22 o
2 0 2 0 9157.90 9321.88 102.96 o
2 0 -2 0 9124.53 9281.82 101.46 o
2 0 2 1 31.71 36.16 2.72 o
2 0 -2 1 31.21 35.52 2.98 o
3 0 2 1 1063.58 1183.67 10.17 o
3 0 -2 1 1110.04 1114.15 13.19 o
4 0 2 0 5393.47 5616.02 68.97 o
4 0 -2 0 5459.84 5517.99 86.36 o
4 0 2 1 14.25 19.90 3.00 o
4 0 -2 1 14.35 20.09 4.05 o
5 0 2 1 877.56 885.63 18.64 o
5 0 -2 1 879.11 862.27 14.98 o
6 0 2 0 1718.00 1955.44 47.71 o
6 0 -2 0 1833.24 1863.42 44.69 o
6 0 2 1 3.53 8.25 5.86 <
6 0 -2 1 3.89 2.68 4.55 <
7 0 2 1 378.44 415.92 17.82 o
7 0 -2 1 394.54 399.09 13.37 o
8 0 2 0 588.89 510.85 28.52 o
8 0 -2 0 583.23 570.52 28.46 o
8 0 2 1 8.45 -2.32 6.91 <
8 0 -2 1 7.12 2.22 6.58 <
9 0 2 1 317.83 321.09 19.40 o
9 0 -2 1 310.18 320.43 18.50 o
0 1 2 0 2575.79 2265.61 30.92 o
0 1 -2 0 2281.48 2471.10 30.21 o
1 1 2 -1 86.30 73.71 3.74 o
1 1 -2 -1 81.40 71.41 3.54 o
1 1 2 0 612.87 603.32 9.35 o
1 1 -2 0 638.54 620.00 13.00 o
1 1 2 1 33.64 32.12 3.20 o
1 1 -2 1 35.41 35.51 4.77 o
2 1 2 -1 20.15 23.33 2.45 o
2 1 -2 -1 23.09 17.59 2.51 o
2 1 2 0 4105.11 4308.31 35.53 o
2 1 -2 0 3871.19 4412.64 39.81 o
2 1 2 1 1.47 4.73 2.41 <
2 1 -2 1 1.82 6.38 3.99 <
3 1 2 -1 189.25 205.15 5.07 o
3 1 -2 -1 217.79 173.91 5.89 o
3 1 2 0 569.55 577.95 9.19 o
3 1 -2 0 565.72 576.21 10.63 o
3 1 2 1 153.09 160.31 4.86 o
3 1 -2 1 163.22 151.18 7.94 o
4 1 2 -1 98.66 96.53 4.30 o
4 1 -2 -1 99.38 98.74 6.04 o
4 1 2 0 2967.86 3066.12 30.43 o
4 1 -2 0 2946.12 3055.80 30.07 o
4 1 2 1 38.95 34.66 4.02 o
4 1 -2 1 36.98 35.02 6.30 o
5 1 2 -1 518.18 538.84 16.38 o
5 1 -2 -1 505.82 557.38 12.47 o
5 1 2 0 240.84 269.30 13.15 o
5 1 -2 0 246.94 253.28 9.79 o
5 1 2 1 281.14 298.41 13.59 o
5 1 -2 1 280.32 293.51 13.10 o
6 1 2 -1 146.61 144.57 11.50 o
6 1 -2 -1 153.59 146.89 8.88 o
6 1 2 0 1129.95 1231.71 28.19 o
6 1 -2 0 1153.96 1194.60 26.71 o
6 1 2 1 29.09 29.15 7.72 o
6 1 -2 1 26.53 62.68 9.27 o
7 1 2 -1 198.91 221.48 14.14 o
7 1 -2 -1 200.18 201.41 10.72 o
7 1 2 0 93.07 99.35 11.44 o
7 1 -2 0 92.12 99.59 11.54 o
7 1 2 1 310.14 325.33 17.44 o
7 1 -2 1 292.02 304.90 16.03 o
8 1 2 -1 129.83 101.73 12.50 o
8 1 -2 -1 128.69 104.83 12.20 o
8 1 2 0 454.29 384.21 19.67 o
8 1 -2 0 435.60 462.10 20.04 o
8 1 2 1 6.18 18.77 9.12 <
8 1 -2 1 6.00 7.42 9.08 <
9 1 2 -1 263.55 239.40 16.97 o
9 1 -2 -1 243.42 275.74 17.78 o
9 1 2 0 30.42 21.80 10.47 <
9 1 -2 0 28.97 24.36 10.60 <
0 2 2 0 3339.21 3363.74 39.07 o
0 2 -2 0 3397.34 3146.59 54.56 o
1 2 2 -1 41.53 45.05 3.88 o
1 2 -2 -1 40.57 40.63 4.39 o
1 2 2 0 1793.42 1802.82 23.27 o
1 2 -2 0 1810.18 1825.15 25.43 o
1 2 2 1 102.35 92.58 6.63 o
1 2 -2 1 104.41 107.33 7.60 o
2 2 2 -1 75.21 69.58 4.59 o
2 2 -2 -1 75.07 89.31 7.09 o
2 2 2 0 3699.08 3786.49 39.47 o
2 2 -2 0 3664.95 3762.38 49.39 o
2 2 2 1 28.46 24.92 4.85 o
2 2 -2 1 29.96 34.87 5.53 o
3 2 2 -1 296.51 283.52 7.12 o
3 2 -2 -1 313.78 242.70 10.52 o
3 2 2 0 1311.50 1275.38 19.36 o
3 2 -2 0 1283.60 1269.36 22.47 o
3 2 2 1 356.95 380.42 11.20 o
3 2 -2 1 361.61 345.45 12.11 o
4 2 2 -1 280.72 289.77 8.14 o
4 2 -2 -1 268.40 300.03 11.67 o
4 2 2 0 2151.27 2289.05 25.85 o
4 2 -2 0 2227.36 2137.33 33.83 o
4 2 2 1 72.33 78.54 7.39 o
4 2 -2 1 70.54 80.52 8.92 o
5 2 2 -1 459.80 424.38 15.77 o
5 2 -2 -1 464.86 430.68 15.55 o
5 2 2 0 475.36 504.17 19.29 o
5 2 -2 0 477.18 499.23 18.01 o
5 2 2 1 350.13 348.85 16.63 o
5 2 -2 1 365.87 340.56 16.78 o
6 2 2 -1 145.53 150.05 12.61 o
6 2 -2 -1 144.27 159.18 13.06 o
6 2 2 0 889.82 940.31 27.97 o
6 2 -2 0 920.69 892.72 27.14 o
6 2 2 1 66.79 54.04 9.97 o
6 2 -2 1 64.36 45.72 10.62 o
7 2 2 -1 195.38 279.81 17.40 o
7 2 -2 -1 207.30 268.96 17.39 o
7 2 2 0 215.57 217.82 16.96 o
7 2 -2 0 209.68 208.00 17.23 o
7 2 2 1 255.89 243.82 18.02 o
7 2 -2 1 253.93 260.23 19.10 o
8 2 2 -1 129.16 110.82 14.62 o
8 2 -2 -1 122.46 155.35 16.70 o
8 2 2 0 275.18 240.90 19.49 o
8 2 -2 0 285.93 252.86 19.71 o
8 2 2 1 66.86 99.79 14.56 o
8 2 -2 1 68.73 91.98 14.96 o
0 3 2 0 445.92 395.98 24.34 o
0 3 -2 0 399.76 453.27 16.39 o
1 3 2 -1 0.40 4.42 4.09 <
1 3 -2 -1 0.25 4.74 4.30 <
1 3 2 0 1921.43 1990.69 44.84 o
1 3 -2 0 1978.14 1926.14 28.94 o
1 3 2 1 10.26 25.47 7.43 o
1 3 -2 1 10.36 10.73 5.68 <
2 3 2 -1 25.74 30.63 5.17 o
2 3 -2 -1 29.73 28.99 5.26 o
2 3 2 0 783.55 787.57 24.18 o
2 3 -2 0 728.77 851.67 20.73 o
2 3 2 1 22.07 20.20 7.49 <
2 3 -2 1 21.85 29.10 6.76 o
3 3 2 -1 20.06 28.44 5.53 o
3 3 -2 -1 19.37 35.74 6.36 o
3 3 2 0 1602.78 1546.47 29.51 o
3 3 -2 0 1603.66 1577.07 29.82 o
3 3 2 1 21.13 12.86 7.43 <
3 3 -2 1 20.21 20.85 6.51 o
4 3 2 -1 201.30 177.05 10.05 o
4 3 -2 -1 195.78 184.41 10.61 o
4 3 2 0 380.72 388.50 15.80 o
4 3 -2 0 378.67 363.83 14.80 o
4 3 2 1 82.87 77.92 10.70 o
4 3 -2 1 81.19 89.98 9.64 o
5 3 2 -1 62.86 42.50 9.17 o
5 3 -2 -1 65.08 58.46 10.36 o
5 3 2 0 908.52 895.71 27.76 o
5 3 -2 0 921.94 940.92 28.74 o
5 3 2 1 48.87 24.47 8.38 <
5 3 -2 1 46.26 50.92 10.90 o
6 3 2 -1 310.21 301.77 17.92 o
6 3 -2 -1 322.05 310.12 18.74 o
6 3 2 0 302.83 305.17 18.81 o
6 3 -2 0 292.95 328.49 19.48 o
6 3 2 1 117.07 93.55 13.82 o
6 3 -2 1 113.07 117.86 15.15 o
7 3 2 -1 51.10 59.33 11.68 o
7 3 -2 -1 47.69 56.74 12.37 o
7 3 2 0 436.01 352.35 22.03 o
7 3 -2 0 434.17 418.96 23.46 o
0 4 2 0 228.17 292.88 25.07 o
0 4 -2 0 237.79 268.52 24.24 o
1 4 2 -1 0.96 8.60 6.73 <
1 4 -2 -1 1.12 6.60 6.36 <
1 4 2 0 1767.75 1807.69 41.71 o
1 4 -2 0 1766.20 1741.86 40.86 o
1 4 2 1 15.94 7.07 8.34 <
1 4 -2 1 15.58 14.02 8.62 <
2 4 2 -1 58.72 58.77 10.16 o
2 4 -2 -1 57.46 59.78 8.57 o
2 4 2 0 250.76 272.92 17.93 o
2 4 -2 0 256.15 278.50 17.92 o
2 4 2 1 40.64 39.86 10.33 o
2 4 -2 1 40.07 37.08 10.24 o
3 4 2 -1 3.95 12.85 7.56 <
3 4 -2 -1 4.05 11.90 6.20 <
3 4 2 0 1222.92 1178.97 34.49 o
3 4 -2 0 1196.88 1173.43 31.19 o
3 4 2 1 41.44 38.47 11.04 o
3 4 -2 1 43.10 28.45 10.10 <
4 4 2 -1 207.72 194.16 15.44 o
4 4 -2 -1 196.47 176.41 12.62 o
4 4 2 0 170.84 171.75 16.61 o
4 4 -2 0 182.15 163.90 13.31 o
5 4 2 -1 23.62 28.30 10.10 <
5 4 -2 -1 25.29 39.17 12.32 o
5 4 2 0 627.70 579.50 31.84 o
5 4 -2 0 615.75 649.65 31.90 o
6 4 2 -1 189.14 195.65 17.70 o
6 4 -2 -1 186.65 206.10 18.80 o
1 5 2 -1 1.24 8.51 8.62 <
1 5 -2 -1 1.29 11.82 8.87 <
2 5 2 -1 23.52 12.78 9.18 <
2 5 -2 -1 25.02 15.36 9.11 <
3 5 2 -1 6.02 0.96 8.93 <
3 5 -2 -1 6.55 10.90 9.37 <
1 0 3 0 9563.75 8990.59 100.18 o
1 0 -3 0 9396.49 8935.97 118.88 o
1 0 3 1 32.36 30.09 2.61 o
1 0 -3 1 32.37 40.75 3.41 o
2 0 3 1 490.03 463.34 7.46 o
2 0 -3 1 475.43 501.52 7.26 o
3 0 3 0 7779.72 8089.37 93.49 o
3 0 -3 0 7683.03 8014.62 92.18 o
3 0 3 1 20.48 16.72 2.88 o
3 0 -3 1 19.33 26.40 3.51 o
4 0 3 1 490.48 473.65 8.19 o
4 0 -3 1 476.23 465.61 10.20 o
5 0 3 0 1725.78 1645.30 46.61 o
5 0 -3 0 1670.04 1631.40 30.15 o
5 0 3 1 38.80 26.18 6.93 o
5 0 -3 1 41.21 33.82 5.09 o
6 0 3 1 310.33 279.89 14.13 o
6 0 -3 1 302.42 318.27 11.49 o
7 0 3 0 889.22 762.56 36.41 o
7 0 -3 0 849.78 904.29 25.19 o
7 0 3 1 13.38 3.13 6.81 <
7 0 -3 1 13.36 0.75 5.17 <
8 0 3 1 275.82 232.74 16.52 o
8 0 -3 1 262.54 256.91 15.76 o
9 0 3 0 179.09 217.46 26.71 o
9 0 -3 0 178.59 207.88 36.07 o
9 0 3 1 26.79 16.42 9.82 <
9 0 -3 1 29.04 13.53 9.30 <
0 1 3 0 181.24 147.98 6.84 o
0 1 -3 0 157.20 186.88 6.79 o
1 1 3 -1 15.59 14.03 2.21 o
1 1 -3 -1 13.98 20.61 2.90 o
1 1 3 0 4568.56 4431.04 41.44 o
1 1 -3 0 4767.20 4236.92 38.94 o
1 1 3 1 9.06 13.95 2.82 o
1 1 -3 1 8.61 14.69 4.59 o
2 1 3 -1 32.18 27.08 3.05 o
2 1 -3 -1 27.73 35.49 3.00 o
2 1 3 0 520.62 533.44 8.67 o
2 1 -3 0 534.06 515.06 9.29 o
2 1 3 1 142.41 123.69 5.74 o
2 1 -3 1 138.94 128.56 8.61 o
3 1 3 -1 55.62 56.78 3.82 o
3 1 -3 -1 57.09 59.22 4.36 o
3 1 3 0 4792.98 4817.28 41.19 o
3 1 -3 0 4886.06 4694.76 46.81 o
3 1 3 1 33.26 33.21 3.68 o
3 1 -3 1 34.76 22.38 7.29 o
4 1 3 -1 241.71 226.74 6.49 o
4 1 -3 -1 250.03 219.70 7.89 o
4 1 3 0 387.81 389.99 8.80 o
4 1 -3 0 377.08 397.68 10.36 o
4 1 3 1 177.22 204.45 7.16 o
4 1 -3 1 185.41 205.16 11.62 o
5 1 3 -1 77.60 80.25 9.23 o
5 1 -3 -1 73.62 88.94 6.73 o
5 1 3 0 1564.09 1617.07 31.02 o
5 1 -3 0 1619.32 1559.80 29.72 o
5 1 3 1 30.22 40.57 7.66 o
5 1 -3 1 30.14 52.06 8.43 o
6 1 3 -1 222.13 248.16 13.96 o
6 1 -3 -1 240.68 208.27 9.97 o
6 1 3 0 140.49 162.16 12.90 o
6 1 -3 0 145.52 158.49 12.42 o
6 1 3 1 312.73 326.38 15.93 o
6 1 -3 1 332.48 323.65 16.02 o
7 1 3 -1 99.53 96.04 10.92 o
7 1 -3 -1 97.74 97.30 11.01 o
7 1 3 0 745.34 702.80 23.66 o
7 1 -3 0 746.32 720.49 22.66 o
7 1 3 1 9.49 19.22 8.14 <
7 1 -3 1 11.39 14.05 8.32 <
8 1 3 -1 263.18 233.86 16.48 o
8 1 -3 -1 272.92 249.04 16.05 o
8 1 3 0 68.97 51.75 10.49 o
8 1 -3 0 65.93 75.72 12.17 o
8 1 3 1 291.26 345.79 20.65 o
8 1 -3 1 302.98 289.49 19.49 o
9 1 3 -1 57.06 47.07 11.16 o
9 1 -3 -1 54.36 51.65 11.11 o
9 1 3 0 138.85 170.28 21.73 o
9 1 -3 0 147.45 166.52 25.37 o
0 2 3 0 1090.98 1087.10 21.20 o
0 2 -3 0 1076.57 1079.04 26.87 o
1 2 3 -1 12.92 9.72 3.00 o
1 2 -3 -1 10.54 10.74 3.92 <
1 2 3 0 3788.76 3719.31 39.81 o
1 2 -3 0 3715.68 3722.88 44.33 o
1 2 3 1 17.55 19.73 5.39 o
1 2 -3 1 17.58 6.30 5.01 <
2 2 3 -1 112.23 91.20 5.52 o
2 2 -3 -1 104.11 100.21 8.33 o
2 2 3 0 1489.74 1527.16 21.34 o
2 2 -3 0 1504.24 1486.86 27.14 o
2 2 3 1 227.72 230.00 9.50 o
2 2 -3 1 223.89 245.19 10.65 o
3 2 3 -1 345.65 355.54 8.07 o
3 2 -3 -1 353.06 358.60 15.19 o
3 2 3 0 2629.65 2593.75 30.86 o
3 2 -3 0 2576.87 2652.74 40.67 o
3 2 3 1 70.23 69.23 6.24 o
3 2 -3 1 69.76 69.89 9.03 o
4 2 3 -1 254.94 224.29 7.51 o
4 2 -3 -1 249.53 230.34 12.27 o
4 2 3 0 873.78 898.23 15.18 o
4 2 -3 0 865.80 930.12 23.00 o
4 2 3 1 238.34 214.36 9.12 o
4 2 -3 1 228.26 208.73 12.66 o
5 2 3 -1 274.86 274.47 13.51 o
5 2 -3 -1 269.49 281.50 14.21 o
5 2 3 0 945.96 918.66 24.06 o
5 2 -3 0 912.63 951.51 24.70 o
5 2 3 1 94.21 111.53 11.76 o
5 2 -3 1 94.66 102.19 12.43 o
6 2 3 -1 126.49 118.97 11.90 o
6 2 -3 -1 119.94 113.47 11.80 o
6 2 3 0 333.83 330.06 17.75 o
6 2 -3 0 342.98 307.08 17.69 o
6 2 3 1 202.57 190.05 15.58 o
6 2 -3 1 196.72 231.49 17.77 o
7 2 3 -1 179.55 209.16 15.67 o
7 2 -3 -1 189.75 212.93 15.91 o
7 2 3 0 465.61 412.93 21.53 o
7 2 -3 0 443.67 400.93 21.32 o
7 2 3 1 65.58 40.19 11.05 o
7 2 -3 1 63.08 78.01 13.44 o
8 2 3 -1 161.34 161.95 16.72 o
8 2 -3 -1 154.35 150.61 16.24 o
8 2 3 0 180.10 163.69 17.27 o
8 2 -3 0 178.67 174.34 17.56 o
0 3 3 0 1298.50 1345.34 38.98 o
0 3 -3 0 1296.10 1399.72 35.57 o
1 3 3 -1 9.70 5.93 4.96 <
1 3 -3 -1 7.80 6.90 5.07 <
1 3 3 0 824.36 830.75 21.22 o
1 3 -3 0 866.34 836.03 19.47 o
1 3 3 1 13.23 -0.24 6.55 <
1 3 -3 1 13.66 13.50 6.14 <
2 3 3 -1 9.93 7.13 4.48 <
2 3 -3 -1 9.00 6.30 5.43 <
2 3 3 0 1481.05 1416.34 30.99 o
2 3 -3 0 1462.25 1462.26 27.54 o
2 3 3 1 28.33 19.83 8.34 <
2 3 -3 1 29.21 19.31 6.57 <
3 3 3 -1 108.12 99.77 7.29 o
3 3 -3 -1 111.39 121.00 10.03 o
3 3 3 0 609.90 660.38 20.99 o
3 3 -3 0 641.58 645.79 20.38 o
3 3 3 1 56.44 69.77 10.92 o
3 3 -3 1 55.36 57.10 8.57 o
4 3 3 -1 39.07 26.95 5.03 o
4 3 -3 -1 41.53 29.79 8.37 o
4 3 3 0 1181.37 1249.66 27.27 o
4 3 -3 0 1182.83 1235.23 26.98 o
4 3 3 1 57.83 46.58 9.84 o
4 3 -3 1 60.41 60.86 8.87 o
5 3 3 -1 319.01 272.56 16.02 o
5 3 -3 -1 310.72 269.47 16.82 o
5 3 3 0 361.46 367.88 18.92 o
5 3 -3 0 377.24 356.44 19.59 o
5 3 3 1 119.32 113.72 15.62 o
5 3 -3 1 123.73 122.13 14.45 o
6 3 3 -1 24.71 30.34 8.95 o
6 3 -3 -1 29.32 29.23 9.68 o
6 3 3 0 611.93 583.63 24.43 o
6 3 -3 0 604.58 635.11 26.04 o
6 3 3 1 101.38 93.35 13.95 o
6 3 -3 1 107.93 91.40 14.32 o
7 3 3 -1 261.11 225.26 18.27 o
7 3 -3 -1 259.63 249.74 19.16 o
7 3 3 0 168.93 155.74 16.61 o
7 3 -3 0 173.60 197.67 18.54 o
0 4 3 0 1702.88 1816.14 59.68 o
0 4 -3 0 1728.02 1765.35 59.01 o
1 4 3 -1 7.24 16.69 8.09 <
1 4 -3 -1 8.58 8.56 6.06 <
1 4 3 0 263.19 247.66 17.69 o
1 4 -3 0 252.75 267.38 17.76 o
1 4 3 1 13.85 16.23 9.45 <
1 4 -3 1 13.54 12.18 8.92 <
2 4 3 -1 17.23 11.15 8.05 <
2 4 -3 -1 17.06 12.40 6.11 <
2 4 3 0 1440.28 1374.26 37.38 o
2 4 -3 0 1431.80 1383.40 36.88 o
2 4 3 1 18.82 26.04 10.04 <
2 4 -3 1 18.39 13.44 8.71 <
3 4 3 -1 149.33 162.74 15.00 o
3 4 -3 -1 150.29 148.13 11.94 o
3 4 3 0 165.37 169.65 17.01 o
3 4 -3 0 156.63 162.59 13.40 o
3 4 3 1 79.91 94.03 14.39 o
3 4 -3 1 80.30 105.19 14.27 o
4 4 3 -1 11.56 5.25 7.54 <
4 4 -3 -1 10.98 4.51 6.63 <
4 4 3 0 931.93 993.97 32.84 o
4 4 -3 0 951.44 923.64 26.74 o
5 4 3 -1 304.29 276.65 21.79 o
5 4 -3 -1 306.94 268.32 19.00 o
5 4 3 0 101.80 68.91 15.46 o
5 4 -3 0 95.80 114.95 18.38 o
6 4 3 -1 12.28 -4.42 11.82 <
6 4 -3 -1 10.99 4.85 9.72 <
1 5 3 -1 2.20 0.08 8.51 <
1 5 -3 -1 3.24 -6.58 8.25 <
2 5 3 -1 0.57 -13.74 7.97 <
2 5 -3 -1 0.79 4.67 8.63 <
0 0 4 0 2205.98 2332.56 46.89 o
0 0 -4 0 2371.14 2395.19 63.24 o
1 0 4 1 270.54 258.75 5.57 o
1 0 -4 1 257.64 280.06 7.70 o
2 0 4 0 5061.62 5298.92 64.06 o
2 0 -4 0 5267.36 4988.93 61.79 o
2 0 4 1 33.11 30.09 3.55 o
2 0 -4 1 33.14 34.63 3.44 o
3 0 4 1 417.90 377.73 8.34 o
3 0 -4 1 415.89 387.48 8.00 o
4 0 4 0 1374.32 1403.79 26.25 o
4 0 -4 0 1334.93 1437.57 26.44 o
4 0 4 1 36.41 38.84 4.37 o
4 0 -4 1 33.73 41.59 4.78 o
5 0 4 1 320.14 321.76 15.67 o
5 0 -4 1 314.50 337.97 9.73 o
6 0 4 0 962.12 959.15 38.09 o
6 0 -4 0 953.44 931.15 23.99 o
6 0 4 1 20.65 22.04 8.29 <
6 0 -4 1 18.68 20.45 5.08 o
7 0 4 1 317.08 311.41 18.00 o
7 0 -4 1 330.60 322.11 16.72 o
8 0 4 0 436.95 434.63 31.73 o
8 0 -4 0 450.56 392.35 28.06 o
8 0 4 1 20.25 4.70 8.72 <
8 0 -4 1 19.86 7.56 8.92 <
0 1 4 0 3673.39 3654.63 47.26 o
0 1 -4 0 3678.97 3605.06 45.34 o
1 1 4 -1 288.07 266.88 5.81 o
1 1 -4 -1 272.49 292.20 6.65 o
1 1 4 0 424.15 411.89 9.19 o
1 1 -4 0 419.91 423.78 8.22 o
1 1 4 1 178.06 163.87 6.84 o
1 1 -4 1 170.94 175.19 5.59 o
2 1 4 -1 9.26 12.31 2.95 o
2 1 -4 -1 11.14 10.59 2.66 o
2 1 4 0 5529.41 5542.52 46.84 o
2 1 -4 0 5596.05 5553.56 52.64 o
2 1 4 1 35.24 25.08 3.55 o
2 1 -4 1 34.06 21.62 5.90 o
3 1 4 -1 440.11 416.26 8.65 o
3 1 -4 -1 442.07 422.91 8.20 o
3 1 4 0 424.69 416.52 9.20 o
3 1 -4 0 435.09 406.74 8.61 o
3 1 4 1 222.15 209.59 7.09 o
3 1 -4 1 207.96 227.00 13.96 o
4 1 4 -1 35.95 40.61 4.48 o
4 1 -4 -1 39.52 34.24 4.53 o
4 1 4 0 3191.93 3308.01 33.21 o
4 1 -4 0 3092.34 3506.74 43.39 o
4 1 4 1 11.53 6.18 3.68 <
4 1 -4 1 12.95 10.40 6.51 <
5 1 4 -1 472.97 459.24 17.27 o
5 1 -4 -1 450.27 470.05 10.91 o
5 1 4 0 170.03 173.68 12.11 o
5 1 -4 0 169.20 200.58 12.52 o
5 1 4 1 493.92 495.45 17.07 o
5 1 -4 1 485.42 485.25 17.22 o
6 1 4 -1 70.65 83.05 11.16 o
6 1 -4 -1 73.42 70.03 7.71 o
6 1 4 0 1790.35 1808.56 36.75 o
6 1 -4 0 1744.79 1850.67 35.38 o
6 1 4 1 25.35 28.00 8.19 o
6 1 -4 1 26.98 34.49 9.29 o
7 1 4 -1 507.64 527.17 21.37 o
7 1 -4 -1 507.41 563.66 20.30 o
7 1 4 0 67.48 59.77 10.47 o
7 1 -4 0 67.80 85.07 13.44 o
7 1 4 1 488.35 467.23 20.52 o
7 1 -4 1 485.50 526.66 25.54 o
8 1 4 -1 85.25 61.06 12.07 o
8 1 -4 -1 86.95 101.64 13.31 o
8 1 4 0 651.59 665.16 25.66 o
8 1 -4 0 652.10 609.78 24.68 o
8 1 4 1 24.12 22.22 9.18 <
8 1 -4 1 22.61 50.78 14.09 o
0 2 4 0 1746.16 1981.03 41.58 o
0 2 -4 0 1851.99 1725.13 38.28 o
1 2 4 -1 45.16 37.14 4.55 o
1 2 -4 -1 41.31 41.70 5.07 o
1 2 4 0 1789.07 1732.44 24.89 o
1 2 -4 0 1748.34 1719.88 24.50 o
1 2 4 1 72.07 72.33 7.46 o
1 2 -4 1 70.23 72.71 7.62 o
2 2 4 -1 85.22 95.36 6.33 o
2 2 -4 -1 82.16 91.59 8.62 o
2 2 4 0 1311.11 1335.38 20.34 o
2 2 -4 0 1364.87 1302.13 26.44 o
2 2 4 1 27.12 18.67 4.79 o
2 2 -4 1 25.81 25.23 6.17 o
3 2 4 -1 187.10 182.70 6.93 o
3 2 -4 -1 189.49 191.36 13.62 o
3 2 4 0 1183.13 1178.79 17.16 o
3 2 -4 0 1186.97 1204.78 29.58 o
3 2 4 1 94.84 95.30 7.51 o
3 2 -4 1 90.89 103.85 11.11 o
4 2 4 -1 240.49 251.89 8.40 o
4 2 -4 -1 239.63 250.63 13.29 o
4 2 4 0 755.68 783.04 14.61 o
4 2 -4 0 762.27 791.47 21.55 o
4 2 4 1 21.75 26.24 4.82 o
4 2 -4 1 24.61 29.40 10.13 <
5 2 4 -1 131.00 126.50 11.21 o
5 2 -4 -1 125.48 123.50 11.65 o
5 2 4 0 504.20 514.35 18.90 o
5 2 -4 0 494.40 510.85 18.90 o
5 2 4 1 216.23 172.67 14.43 o
5 2 -4 1 220.89 199.56 14.35 o
6 2 4 -1 202.45 211.37 14.47 o
6 2 -4 -1 197.42 215.66 15.61 o
6 2 4 0 359.39 343.23 17.56 o
6 2 -4 0 353.76 329.94 17.62 o
6 2 4 1 52.14 69.37 11.56 o
6 2 -4 1 55.87 75.42 15.86 o
7 2 4 -1 113.32 130.12 13.60 o
7 2 -4 -1 115.42 126.00 16.35 o
7 2 4 0 198.26 186.22 16.79 o
7 2 -4 0 195.74 176.21 26.26 o
7 2 4 1 141.62 160.31 16.55 o
7 2 -4 1 149.64 175.74 28.24 o
8 2 4 -1 189.28 187.40 18.27 o
8 2 -4 -1 181.60 151.53 24.37 o
8 2 4 0 231.44 260.07 20.88 o
8 2 -4 0 242.35 263.24 31.03 o
0 3 4 0 1243.61 1298.10 39.02 o
0 3 -4 0 1265.59 1217.82 35.80 o
1 3 4 -1 7.25 10.33 5.10 <
1 3 -4 -1 6.90 8.38 5.75 <
1 3 4 0 1492.05 1486.05 29.67 o
1 3 -4 0 1489.93 1455.89 27.29 o
1 3 4 1 7.52 7.24 6.56 <
1 3 -4 1 6.67 19.93 8.10 <
2 3 4 -1 7.53 8.86 5.49 <
2 3 -4 -1 9.81 11.95 6.25 <
2 3 4 0 923.47 966.64 23.81 o
2 3 -4 0 898.48 973.13 21.91 o
2 3 4 1 31.73 16.47 6.98 <
2 3 -4 1 30.54 12.14 7.10 <
3 3 4 -1 72.86 42.17 5.74 o
3 3 -4 -1 72.44 63.66 9.95 o
3 3 4 0 1195.43 1230.65 26.94 o
3 3 -4 0 1225.78 1167.61 32.42 o
3 3 4 1 52.84 50.14 9.46 o
3 3 -4 1 49.15 50.80 9.52 o
4 3 4 -1 130.88 143.52 8.03 o
4 3 -4 -1 140.80 158.93 15.01 o
4 3 4 0 814.28 858.69 22.93 o
4 3 -4 0 797.43 859.48 26.69 o
4 3 4 1 61.43 55.34 9.38 o
4 3 -4 1 62.16 74.98 9.82 o
5 3 4 -1 120.39 132.87 13.19 o
5 3 -4 -1 115.99 145.31 13.96 o
5 3 4 0 732.84 767.84 26.37 o
5 3 -4 0 741.03 815.38 27.37 o
5 3 4 1 126.74 118.16 20.20 o
5 3 -4 1 123.50 110.75 14.69 o
6 3 4 -1 174.11 143.19 14.82 o
6 3 -4 -1 180.57 164.03 19.64 o
6 3 4 0 408.39 372.47 21.53 o
6 3 -4 0 392.02 415.52 26.34 o
6 3 4 1 130.04 94.42 20.42 o
6 3 -4 1 132.55 146.02 19.34 o
7 3 4 -1 112.68 88.50 13.97 o
7 3 -4 -1 108.52 122.95 24.63 o
0 4 4 0 100.31 117.08 18.87 o
0 4 -4 0 111.86 75.98 16.54 o
1 4 4 -1 2.03 6.70 6.31 <
1 4 -4 -1 2.13 3.50 7.07 <
1 4 4 0 1876.99 1833.98 44.03 o
1 4 -4 0 1837.09 1868.57 43.92 o
1 4 4 1 0.14 -4.33 8.52 <
1 4 -4 1 0.09 0.86 8.23 <
2 4 4 -1 61.13 58.20 10.40 o
2 4 -4 -1 59.48 62.88 10.01 o
2 4 4 0 27.03 27.87 10.16 <
2 4 -4 0 33.15 34.94 8.76 o
2 4 4 1 34.70 29.06 11.03 <
2 4 -4 1 34.89 38.66 11.01 o
3 4 4 -1 0.29 -2.41 6.82 <
3 4 -4 -1 0.26 1.72 6.12 <
3 4 4 0 1222.53 1185.32 36.19 o
3 4 -4 0 1216.17 1159.43 29.58 o
4 4 4 -1 211.93 239.63 16.89 o
4 4 -4 -1 211.85 243.47 14.72 o
4 4 4 0 22.07 24.89 12.57 <
4 4 -4 0 25.21 31.07 10.12 o
5 4 4 -1 0.53 10.73 12.17 <
5 4 -4 -1 0.39 5.72 9.17 <
1 5 4 -1 0.43 -3.73 9.05 <
1 5 -4 -1 0.52 10.85 8.89 <
1 0 5 0 8461.91 8658.75 101.46 o
1 0 -5 0 8308.29 8806.67 121.06 o
1 0 5 1 6.97 4.31 3.08 <
1 0 -5 1 6.84 7.70 3.78 <
2 0 5 1 256.03 220.26 7.14 o
2 0 -5 1 251.79 238.73 6.50 o
3 0 5 0 5028.23 4828.36 64.15 o
3 0 -5 0 4986.65 4900.87 77.97 o
3 0 5 1 14.54 5.68 3.81 <
3 0 -5 1 15.11 9.36 4.37 <
4 0 5 1 231.26 219.96 8.16 o
4 0 -5 1 242.78 240.76 11.00 o
5 0 5 0 2005.92 2072.83 56.88 o
5 0 -5 0 1974.23 2114.82 46.65 o
5 0 5 1 13.67 3.45 6.81 <
5 0 -5 1 12.62 12.40 5.68 <
6 0 5 1 866.85 885.85 25.55 o
6 0 -5 1 869.33 889.19 24.02 o
7 0 5 0 1002.03 977.02 43.33 o
7 0 -5 0 1008.53 1034.60 39.53 o
7 0 5 1 14.93 3.50 7.76 <
7 0 -5 1 16.89 11.23 8.21 <
8 0 5 1 384.16 388.10 25.30 o
8 0 -5 1 380.63 412.19 21.11 o
0 1 5 0 469.77 492.92 13.64 o
0 1 -5 0 468.39 485.22 12.34 o
1 1 5 -1 1.94 0.63 2.47 <
1 1 -5 -1 1.31 4.49 3.74 <
1 1 5 0 1791.22 1796.95 19.82 o
1 1 -5 0 1783.78 1823.31 21.95 o
1 1 5 1 5.14 -2.08 3.37 <
1 1 -5 1 4.89 3.96 3.18 <
2 1 5 -1 18.30 15.67 3.60 o
2 1 -5 -1 18.87 14.56 3.27 o
2 1 5 0 535.36 555.72 10.52 o
2 1 -5 0 550.36 544.28 11.76 o
2 1 5 1 18.57 18.93 3.90 o
2 1 -5 1 19.16 18.30 6.87 <
3 1 5 -1 83.82 74.12 5.45 o
3 1 -5 -1 84.11 78.29 6.36 o
3 1 5 0 1566.22 1492.40 19.97 o
3 1 -5 0 1587.60 1457.44 24.76 o
3 1 5 1 19.51 13.58 4.13 o
3 1 -5 1 18.96 30.49 7.22 o
4 1 5 -1 54.02 65.90 5.64 o
4 1 -5 -1 69.53 56.90 6.76 o
4 1 5 0 174.73 170.24 8.08 o
4 1 -5 0 172.40 189.09 13.41 o
4 1 5 1 35.66 34.90 5.00 o
4 1 -5 1 50.07 37.64 8.71 o
5 1 5 -1 72.98 62.66 9.48 o
5 1 -5 -1 70.33 79.88 9.44 o
5 1 5 0 830.78 889.85 25.02 o
5 1 -5 0 836.37 808.62 24.53 o
5 1 5 1 2.29 -0.49 6.63 <
5 1 -5 1 1.43 11.94 8.82 <
6 1 5 -1 347.59 381.22 18.33 o
6 1 -5 -1 356.42 393.74 17.81 o
6 1 5 0 190.40 201.21 15.58 o
6 1 -5 0 187.48 228.45 16.09 o
6 1 5 1 425.43 475.18 20.20 o
6 1 -5 1 429.35 418.05 20.19 o
7 1 5 -1 171.42 164.17 15.38 o
7 1 -5 -1 170.54 169.73 15.15 o
7 1 5 0 485.39 466.68 22.21 o
7 1 -5 0 495.00 433.27 20.84 o
7 1 5 1 17.17 32.08 10.13 o
7 1 -5 1 17.72 17.04 9.88 <
8 1 5 -1 193.80 195.60 17.97 o
8 1 -5 -1 192.67 222.29 17.74 o
8 1 5 0 33.49 33.23 10.96 o
8 1 -5 0 32.53 71.21 12.45 o
8 1 5 1 202.02 185.73 18.11 o
8 1 -5 1 209.57 207.57 19.28 o
0 2 5 0 1337.55 1380.75 35.36 o
0 2 -5 0 1333.53 1373.33 34.01 o
1 2 5 -1 7.76 3.53 3.90 <
1 2 -5 -1 6.19 10.37 4.45 <
1 2 5 0 3591.34 3554.97 42.26 o
1 2 -5 0 3536.93 3609.26 41.61 o
1 2 5 1 14.45 6.85 5.60 <
1 2 -5 1 14.39 5.66 5.94 <
2 2 5 -1 65.95 73.23 5.38 o
2 2 -5 -1 65.97 73.66 8.63 o
2 2 5 0 1008.86 985.11 18.39 o
2 2 -5 0 1032.78 955.22 20.03 o
2 2 5 1 105.88 98.39 8.96 o
2 2 -5 1 103.50 106.57 9.49 o
3 2 5 -1 192.54 202.91 7.94 o
3 2 -5 -1 190.99 225.26 12.82 o
3 2 5 0 2439.66 2424.69 28.29 o
3 2 -5 0 2410.61 2485.93 40.30 o
3 2 5 1 42.41 33.21 5.13 o
3 2 -5 1 39.24 59.55 9.39 o
4 2 5 -1 161.88 176.49 8.33 o
4 2 -5 -1 168.17 178.55 12.49 o
4 2 5 0 438.04 469.06 12.02 o
4 2 -5 0 433.34 436.96 18.35 o
4 2 5 1 154.21 182.47 9.42 o
4 2 -5 1 155.92 170.29 17.22 o
5 2 5 -1 40.23 43.19 8.64 o
5 2 -5 -1 39.51 53.11 10.78 o
5 2 5 0 1095.39 1066.30 27.26 o
5 2 -5 0 1087.66 1109.77 35.36 o
5 2 5 1 60.66 57.57 9.78 o
5 2 -5 1 60.79 71.01 14.29 o
6 2 5 -1 330.41 378.89 17.96 o
6 2 -5 -1 334.30 378.89 19.53 o
6 2 5 0 318.85 331.52 17.57 o
6 2 -5 0 312.57 311.86 23.29 o
6 2 5 1 455.20 440.38 21.36 o
6 2 -5 1 449.74 459.06 35.03 o
7 2 5 -1 146.28 120.68 14.74 o
7 2 -5 -1 146.25 127.10 15.19 o
7 2 5 0 473.13 525.89 24.72 o
7 2 -5 0 475.71 529.85 28.48 o
7 2 5 1 87.10 109.96 15.39 o
7 2 -5 1 86.94 132.56 26.66 o
8 2 5 -1 236.09 213.41 19.01 o
8 2 -5 -1 230.78 200.47 18.87 o
0 3 5 0 1962.69 2044.87 51.46 o
0 3 -5 0 1969.49 2085.92 50.05 o
1 3 5 -1 13.83 12.49 6.05 <
1 3 -5 -1 11.98 13.61 6.62 <
1 3 5 0 208.24 221.53 13.07 o
1 3 -5 0 214.73 212.81 12.80 o
1 3 5 1 10.47 -0.44 6.42 <
1 3 -5 1 10.82 -5.95 6.94 <
2 3 5 -1 0.84 6.33 5.68 <
2 3 -5 -1 1.19 0.08 5.92 <
2 3 5 0 1361.40 1335.94 28.86 o
2 3 -5 0 1384.75 1351.96 27.58 o
2 3 5 1 1.46 -3.69 6.25 <
2 3 -5 1 2.15 0.54 7.54 <
3 3 5 -1 172.10 189.29 10.16 o
3 3 -5 -1 172.48 190.50 16.46 o
3 3 5 0 218.62 231.15 13.68 o
3 3 -5 0 220.37 231.20 14.47 o
3 3 5 1 29.17 23.73 8.15 <
3 3 -5 1 25.86 33.71 12.14 <
4 3 5 -1 9.30 12.38 5.15 <
4 3 -5 -1 10.79 23.47 10.70 <
4 3 5 0 1089.65 1139.17 29.23 o
4 3 -5 0 1088.98 1063.03 44.70 o
4 3 5 1 13.49 16.41 9.32 <
4 3 -5 1 18.24 17.05 15.15 <
5 3 5 -1 156.37 132.23 13.41 o
5 3 -5 -1 150.94 149.39 17.52 o
5 3 5 0 139.47 111.42 18.62 o
5 3 -5 0 144.35 128.10 23.22 o
5 3 5 1 89.62 68.93 17.94 o
5 3 -5 1 89.69 117.15 21.75 o
6 3 5 -1 29.18 47.36 11.17 o
6 3 -5 -1 30.65 53.51 19.12 <
6 3 5 0 569.10 508.05 24.42 o
6 3 -5 0 561.36 589.88 40.03 o
7 3 5 -1 332.00 301.60 21.30 o
7 3 -5 -1 326.41 290.79 31.58 o
0 4 5 0 1489.16 1492.05 49.78 o
0 4 -5 0 1493.91 1521.77 56.88 o
1 4 5 -1 28.57 16.65 7.31 <
1 4 -5 -1 27.83 37.09 9.42 o
1 4 5 0 300.80 281.98 18.45 o
1 4 -5 0 298.73 316.74 20.63 o
1 4 5 1 9.21 -1.77 9.37 <
1 4 -5 1 9.85 0.66 8.04 <
2 4 5 -1 0.91 1.30 6.70 <
2 4 -5 -1 0.54 15.97 9.43 <
2 4 5 0 960.11 897.78 29.65 o
2 4 -5 0 969.21 876.92 28.14 o
3 4 5 -1 95.98 90.32 12.19 o
3 4 -5 -1 96.21 122.95 15.30 o
3 4 5 0 235.80 254.13 20.03 o
3 4 -5 0 232.38 206.42 15.99 o
4 4 5 -1 16.98 2.84 9.05 <
4 4 -5 -1 17.61 15.34 15.42 <
4 4 5 0 757.53 836.64 40.02 o
4 4 -5 0 759.89 745.78 35.33 o
5 4 5 -1 97.77 89.51 19.38 o
5 4 -5 -1 95.37 121.44 22.68 o
0 0 6 0 3667.67 3590.51 72.83 o
0 0 -6 0 3551.55 3682.06 98.22 o
1 0 6 1 88.68 96.46 6.04 o
1 0 -6 1 93.69 82.04 7.05 o
2 0 6 0 3231.54 3002.38 44.99 o
2 0 -6 0 3251.75 3020.43 54.62 o
2 0 6 1 9.57 -3.14 3.76 <
2 0 -6 1 9.44 13.73 5.38 <
3 0 6 1 47.87 21.14 4.73 o
3 0 -6 1 39.12 56.83 7.07 o
4 0 6 0 558.72 515.06 22.18 o
4 0 -6 0 553.09 505.32 22.33 o
4 0 6 1 28.82 21.06 6.72 o
4 0 -6 1 28.15 18.16 6.26 <
5 0 6 1 110.02 102.44 9.99 o
5 0 -6 1 106.86 123.66 11.38 o
6 0 6 0 677.71 714.51 35.42 o
6 0 -6 0 674.02 697.05 28.01 o
6 0 6 1 32.63 28.69 9.75 <
6 0 -6 1 32.66 31.84 9.52 o
7 0 6 1 247.67 272.63 18.75 o
7 0 -6 1 244.32 299.39 18.26 o
8 0 6 0 207.98 172.60 25.95 o
8 0 -6 0 193.56 243.17 38.79 o
8 0 6 1 18.78 -3.97 9.13 <
8 0 -6 1 18.68 14.15 13.16 <
0 1 6 0 5747.23 5726.90 92.90 o
0 1 -6 0 5696.32 5770.10 88.73 o
1 1 6 -1 60.65 45.50 4.74 o
1 1 -6 -1 65.47 46.21 6.14 o
1 1 6 0 301.35 296.93 8.84 o
1 1 -6 0 301.72 271.51 10.46 o
1 1 6 1 102.89 122.28 6.99 o
1 1 -6 1 107.71 116.90 9.96 o
2 1 6 -1 11.14 10.86 4.21 <
2 1 -6 -1 12.46 15.85 5.58 <
2 1 6 0 5298.18 5268.23 49.40 o
2 1 -6 0 5384.88 5196.82 58.73 o
2 1 6 1 12.59 9.42 4.31 <
2 1 -6 1 13.25 15.98 7.45 <
3 1 6 -1 107.60 94.14 6.66 o
3 1 -6 -1 99.55 118.16 8.83 o
3 1 6 0 151.45 145.98 7.82 o
3 1 -6 0 150.87 168.06 13.18 o
3 1 6 1 28.53 24.63 4.95 o
3 1 -6 1 28.14 25.84 8.41 o
4 1 6 -1 19.03 12.97 6.29 <
4 1 -6 -1 21.44 20.76 7.48 <
4 1 6 0 1934.50 1920.50 32.00 o
4 1 -6 0 1969.53 1948.80 37.96 o
4 1 6 1 24.37 24.85 6.14 o
4 1 -6 1 25.07 29.53 9.37 o
5 1 6 -1 176.62 180.81 11.46 o
5 1 -6 -1 180.94 180.65 14.76 o
5 1 6 0 173.26 181.08 12.24 o
5 1 -6 0 173.57 203.91 16.04 o
5 1 6 1 392.64 408.16 15.53 o
5 1 -6 1 388.61 441.72 20.32 o
6 1 6 -1 56.75 48.65 10.42 o
6 1 -6 -1 57.25 57.14 10.71 o
6 1 6 0 1314.17 1429.88 35.52 o
6 1 -6 0 1329.63 1394.28 34.91 o
6 1 6 1 43.05 41.54 10.35 o
6 1 -6 1 43.41 43.86 11.82 o
7 1 6 -1 478.54 531.99 22.94 o
7 1 -6 -1 478.62 561.22 22.34 o
7 1 6 0 63.64 61.39 12.54 o
7 1 -6 0 64.55 73.57 12.37 o
7 1 6 1 467.15 426.93 22.15 o
7 1 -6 1 469.04 475.99 24.04 o
8 1 6 -1 43.97 17.59 10.89 <
8 1 -6 -1 44.96 60.43 14.62 o
8 1 6 0 383.92 345.54 22.56 o
8 1 -6 0 373.06 336.51 22.22 o
0 2 6 0 1517.74 1481.96 38.85 o
0 2 -6 0 1452.24 1545.76 45.24 o
1 2 6 -1 21.13 20.21 5.16 o
1 2 -6 -1 21.70 24.08 7.45 o
1 2 6 0 1191.82 1211.41 26.72 o
1 2 -6 0 1184.86 1181.72 25.61 o
1 2 6 1 61.23 58.56 8.65 o
1 2 -6 1 62.70 62.80 9.61 o
2 2 6 -1 151.71 147.12 7.82 o
2 2 -6 -1 151.93 143.04 12.08 o
2 2 6 0 1050.75 1002.82 17.61 o
2 2 -6 0 1061.47 976.03 25.44 o
2 2 6 1 9.52 15.20 6.80 <
2 2 -6 1 10.33 9.19 7.43 <
3 2 6 -1 33.29 35.24 5.37 o
3 2 -6 -1 28.71 60.18 10.16 o
3 2 6 0 664.40 644.16 14.60 o
3 2 -6 0 656.10 693.52 22.58 o
3 2 6 1 4.85 13.30 5.57 <
3 2 -6 1 4.70 7.07 10.35 <
4 2 6 -1 167.64 167.32 9.87 o
4 2 -6 -1 168.35 160.56 14.25 o
4 2 6 0 412.67 369.79 13.55 o
4 2 -6 0 403.57 358.39 18.12 o
4 2 6 1 37.71 32.97 7.85 o
4 2 -6 1 38.00 39.37 10.61 o
5 2 6 -1 27.10 14.08 7.11 <
5 2 -6 -1 25.40 18.55 10.11 <
5 2 6 0 536.73 517.64 19.91 o
5 2 -6 0 534.25 516.97 22.51 o
5 2 6 1 142.19 165.98 15.11 o
5 2 -6 1 136.89 169.26 16.25 o
6 2 6 -1 238.75 240.01 17.28 o
6 2 -6 -1 237.05 244.51 18.58 o
6 2 6 0 208.28 208.57 16.53 o
6 2 -6 0 209.73 224.67 18.51 o
6 2 6 1 66.12 46.83 13.50 o
6 2 -6 1 64.37 43.81 12.32 o
7 2 6 -1 71.39 107.21 14.53 o
7 2 -6 -1 69.24 118.62 15.82 o
7 2 6 0 196.39 231.96 19.41 o
7 2 -6 0 200.53 222.76 20.62 o
0 3 6 0 1198.68 1263.64 40.26 o
0 3 -6 0 1184.76 1167.26 45.21 o
1 3 6 -1 19.91 22.26 7.10 o
1 3 -6 -1 19.53 22.00 8.03 <
1 3 6 0 1002.01 1041.96 28.18 o
1 3 -6 0 1005.84 1046.39 26.97 o
1 3 6 1 27.65 25.85 8.66 <
1 3 -6 1 28.94 27.16 10.00 <
2 3 6 -1 56.45 54.48 9.00 o
2 3 -6 -1 57.91 45.53 8.93 o
2 3 6 0 1004.17 1030.00 28.22 o
2 3 -6 0 1027.37 1028.12 27.02 o
2 3 6 1 15.78 1.71 7.74 <
2 3 -6 1 16.65 2.41 8.48 <
3 3 6 -1 16.44 24.01 6.54 o
3 3 -6 -1 15.82 13.74 9.03 <
3 3 6 0 802.02 781.83 22.88 o
3 3 -6 0 800.37 799.16 25.78 o
3 3 6 1 19.71 14.72 8.39 <
3 3 -6 1 20.87 2.29 12.36 <
4 3 6 -1 63.82 62.61 10.03 o
4 3 -6 -1 66.98 76.58 12.29 o
4 3 6 0 635.34 669.86 25.45 o
4 3 -6 0 644.12 636.89 29.20 o
4 3 6 1 79.39 58.63 11.99 o
4 3 -6 1 79.88 91.63 21.46 o
5 3 6 -1 61.66 48.26 10.56 o
5 3 -6 -1 63.12 65.48 12.67 o
5 3 6 0 685.31 673.87 37.66 o
5 3 -6 0 684.69 628.27 38.22 o
5 3 6 1 142.87 178.02 24.94 o
5 3 -6 1 141.76 192.21 28.47 o
6 3 6 -1 162.26 130.37 17.72 o
6 3 -6 -1 163.28 160.80 21.54 o
0 4 6 0 40.48 12.80 12.89 <
0 4 -6 0 34.31 43.06 24.36 <
1 4 6 -1 5.94 17.40 8.97 <
1 4 -6 -1 5.93 10.64 9.24 <
1 4 6 0 1363.41 1384.67 38.11 o
1 4 -6 0 1357.81 1372.71 53.47 o
2 4 6 -1 110.75 94.21 12.63 o
2 4 -6 -1 111.16 110.34 15.55 o
2 4 6 0 20.72 9.01 9.35 <
2 4 -6 0 18.50 28.78 14.79 <
3 4 6 -1 8.89 7.47 8.93 <
3 4 -6 -1 7.79 3.44 11.91 <
3 4 6 0 1071.75 1036.83 38.04 o
3 4 -6 0 1063.45 990.96 34.83 o
4 4 6 -1 176.88 139.09 16.15 o
4 4 -6 -1 177.94 191.26 27.19 o
1 0 7 0 4131.42 3609.34 69.49 o
1 0 -7 0 4184.60 3865.79 66.04 o
1 0 7 1 2.95 -9.30 6.07 <
1 0 -7 1 2.71 5.28 5.62 <
2 0 7 1 296.59 316.65 13.65 o
2 0 -7 1 311.19 304.93 12.44 o
3 0 7 0 2122.96 2371.55 58.51 o
3 0 -7 0 2167.33 2268.07 49.42 o
3 0 7 1 4.11 -3.15 5.62 <
3 0 -7 1 3.99 -1.28 6.11 <
4 0 7 1 469.70 420.15 15.43 o
4 0 -7 1 455.91 457.32 17.34 o
5 0 7 0 1881.11 1855.24 48.21 o
5 0 -7 0 1894.88 1921.38 47.68 o
5 0 7 1 11.97 -0.05 6.91 <
5 0 -7 1 10.76 14.68 8.97 <
6 0 7 1 335.52 375.11 19.56 o
6 0 -7 1 336.45 334.95 19.11 o
7 0 7 0 585.50 727.78 40.22 o
7 0 -7 0 608.49 638.49 52.28 o
7 0 7 1 3.98 5.57 9.48 <
7 0 -7 1 5.11 -7.47 10.89 <
0 1 7 0 372.86 363.59 19.86 o
0 1 -7 0 383.73 339.22 18.83 o
1 1 7 -1 10.20 10.92 6.38 <
1 1 -7 -1 11.68 9.93 5.82 <
1 1 7 0 1729.08 1652.32 29.67 o
1 1 -7 0 1701.31 1685.33 27.05 o
1 1 7 1 3.38 1.33 6.35 <
1 1 -7 1 3.57 4.48 6.99 <
2 1 7 -1 141.47 129.86 10.27 o
2 1 -7 -1 151.14 143.68 9.81 o
2 1 7 0 372.39 350.29 14.38 o
2 1 -7 0 360.77 391.67 17.55 o
2 1 7 1 67.63 102.00 9.54 o
2 1 -7 1 76.49 83.20 11.37 o
3 1 7 -1 40.11 38.29 6.72 o
3 1 -7 -1 40.17 41.67 7.51 o
3 1 7 0 1067.83 1117.76 21.79 o
3 1 -7 0 1045.05 1177.18 28.61 o
3 1 7 1 7.77 4.23 5.41 <
3 1 -7 1 7.50 8.50 8.54 <
4 1 7 -1 196.83 193.42 11.81 o
4 1 -7 -1 182.35 200.21 14.95 o
4 1 7 0 165.58 185.55 12.76 o
4 1 -7 0 173.34 184.73 15.52 o
4 1 7 1 233.20 210.48 12.84 o
4 1 -7 1 223.32 244.98 17.03 o
5 1 7 -1 106.29 90.72 10.53 o
5 1 -7 -1 109.08 81.91 12.02 o
5 1 7 0 1213.49 1230.74 27.38 o
5 1 -7 0 1193.76 1241.85 32.52 o
5 1 7 1 13.63 10.59 7.60 <
5 1 -7 1 12.23 31.79 11.69 <
6 1 7 -1 198.24 165.67 15.52 o
6 1 -7 -1 193.86 202.11 16.79 o
6 1 7 0 123.68 115.73 14.27 o
6 1 -7 0 124.21 167.18 16.86 o
6 1 7 1 153.15 150.48 15.38 o
6 1 -7 1 148.04 137.77 15.91 o
7 1 7 -1 109.95 105.82 14.36 o
7 1 -7 -1 109.47 117.49 15.23 o
7 1 7 0 391.41 473.03 24.15 o
7 1 -7 0 393.03 436.32 23.72 o
7 1 7 1 25.62 7.41 10.40 <
7 1 -7 1 25.82 22.66 12.50 <
0 2 7 0 893.40 962.49 38.11 o
0 2 -7 0 897.25 844.46 34.99 o
1 2 7 -1 14.63 4.21 6.55 <
1 2 -7 -1 16.52 11.57 7.48 <
1 2 7 0 1928.65 1880.44 38.79 o
1 2 -7 0 1956.16 1804.40 37.61 o
1 2 7 1 2.88 6.23 7.54 <
1 2 -7 1 3.33 12.57 8.90 <
2 2 7 -1 181.40 135.98 10.62 o
2 2 -7 -1 187.62 142.29 13.22 o
2 2 7 0 816.93 761.68 24.18 o
2 2 -7 0 790.07 778.38 24.82 o
2 2 7 1 103.62 137.29 13.09 o
2 2 -7 1 109.61 122.08 13.53 o
3 2 7 -1 69.31 46.82 6.84 o
3 2 -7 -1 64.85 57.71 11.04 o
3 2 7 0 1219.77 1302.18 25.15 o
3 2 -7 0 1253.29 1345.87 32.44 o
3 2 7 1 15.92 12.64 7.01 <
3 2 -7 1 18.20 28.38 10.27 <
4 2 7 -1 148.49 172.81 12.57 o
4 2 -7 -1 142.69 175.99 15.33 o
4 2 7 0 379.37 391.11 16.47 o
4 2 -7 0 384.46 413.82 20.68 o
4 2 7 1 296.53 261.71 18.21 o
4 2 -7 1 291.45 279.67 22.49 o
5 2 7 -1 73.69 66.83 9.87 o
5 2 -7 -1 76.21 58.96 12.01 o
5 2 7 0 871.90 901.03 26.69 o
5 2 -7 0 875.30 887.59 29.58 o
5 2 7 1 47.26 37.03 9.88 o
5 2 -7 1 46.61 33.94 12.63 <
6 2 7 -1 190.24 176.30 16.07 o
6 2 -7 -1 194.60 185.64 17.99 o
6 2 7 0 243.25 223.54 18.06 o
6 2 -7 0 244.90 249.03 20.05 o
6 2 7 1 190.32 212.39 18.67 o
6 2 -7 1 194.74 225.80 20.47 o
7 2 7 -1 107.75 95.39 14.78 o
7 2 -7 -1 105.60 109.80 16.43 o
0 3 7 0 1365.89 1328.18 50.64 o
0 3 -7 0 1372.27 1412.22 51.38 o
1 3 7 -1 10.52 1.29 7.46 <
1 3 -7 -1 11.90 2.15 9.09 <
1 3 7 0 315.22 324.77 19.58 o
1 3 -7 0 297.78 302.33 19.46 o
1 3 7 1 5.34 2.29 9.13 <
1 3 -7 1 5.02 11.08 11.14 <
2 3 7 -1 33.13 14.96 7.97 <
2 3 -7 -1 35.22 29.48 10.24 <
2 3 7 0 1215.84 1219.58 34.12 o
2 3 -7 0 1212.84 1265.29 34.30 o
2 3 7 1 9.30 2.63 8.69 <
2 3 -7 1 11.17 -1.41 10.44 <
3 3 7 -1 80.13 56.56 9.57 o
3 3 -7 -1 79.68 68.47 12.31 o
3 3 7 0 249.57 241.06 16.42 o
3 3 -7 0 242.17 263.90 18.62 o
3 3 7 1 18.56 17.38 10.41 <
3 3 -7 1 20.33 6.19 13.47 <
4 3 7 -1 34.78 32.86 10.97 <
4 3 -7 -1 31.69 34.94 13.49 <
4 3 7 0 844.89 826.68 36.00 o
4 3 -7 0 851.55 857.14 29.01 o
4 3 7 1 46.79 34.91 14.33 <
4 3 -7 1 44.74 22.63 18.46 <
5 3 7 -1 173.17 193.00 19.22 o
5 3 -7 -1 180.45 192.14 22.34 o
5 3 7 0 223.43 174.98 33.39 o
5 3 -7 0 210.82 195.20 28.95 o
6 3 7 -1 44.76 38.59 14.27 <
6 3 -7 -1 43.33 12.83 13.16 <
0 4 7 0 1078.34 1046.59 52.43 o
0 4 -7 0 1061.72 1077.77 52.30 o
1 4 7 -1 12.11 22.69 10.73 <
1 4 -7 -1 11.16 8.46 11.23 <
1 4 7 0 152.72 95.86 15.48 o
1 4 -7 0 157.28 163.60 26.10 o
2 4 7 -1 9.52 10.62 9.86 <
2 4 -7 -1 10.28 1.21 10.72 <
3 4 7 -1 54.63 42.70 12.25 o
3 4 -7 -1 53.26 10.82 16.93 <
0 0 8 0 2313.97 2249.86 85.93 o
0 0 -8 0 2295.37 2137.08 53.49 o
1 0 8 1 23.80 28.61 7.67 o
1 0 -8 1 27.64 28.59 7.34 o
2 0 8 0 2258.35 2039.59 50.25 o
2 0 -8 0 2105.02 2117.66 47.46 o
2 0 8 1 7.67 -8.31 6.58 <
2 0 -8 1 7.06 8.62 6.79 <
3 0 8 1 279.73 261.81 13.80 o
3 0 -8 1 278.81 288.81 15.25 o
4 0 8 0 1958.58 2101.20 59.83 o
4 0 -8 0 1955.78 2043.07 49.85 o
4 0 8 1 39.48 17.70 9.26 <
4 0 -8 1 39.58 52.45 11.02 o
5 0 8 1 192.31 168.93 15.20 o
5 0 -8 1 198.49 170.42 15.69 o
6 0 8 0 694.00 625.07 52.22 o
6 0 -8 0 688.43 623.03 50.45 o
6 0 8 1 45.54 24.99 15.67 <
6 0 -8 1 45.57 31.62 13.11 <
7 0 8 1 170.19 170.74 25.04 o
7 0 -8 1 161.28 120.23 21.70 o
0 1 8 0 2065.56 1804.71 45.91 o
0 1 -8 0 2140.32 1892.96 44.64 o
1 1 8 -1 66.37 69.46 9.13 o
1 1 -8 -1 73.05 66.60 8.52 o
1 1 8 0 213.03 197.78 12.30 o
1 1 -8 0 216.63 240.08 14.49 o
1 1 8 1 7.23 7.25 7.19 <
1 1 -8 1 9.11 8.78 8.15 <
2 1 8 -1 7.03 -3.98 6.80 <
2 1 -8 -1 6.54 13.19 6.99 <
2 1 8 0 1706.91 1652.74 31.41 o
2 1 -8 0 1685.59 1721.35 36.33 o
2 1 8 1 0.86 -2.47 6.42 <
2 1 -8 1 1.07 7.00 8.64 <
3 1 8 -1 171.16 165.18 12.33 o
3 1 -8 -1 171.61 154.05 13.67 o
3 1 8 0 197.37 191.79 12.87 o
3 1 -8 0 195.67 210.56 15.78 o
3 1 8 1 261.44 293.88 14.71 o
3 1 -8 1 267.69 307.06 18.03 o
4 1 8 -1 50.30 37.25 10.23 o
4 1 -8 -1 49.41 48.47 10.97 o
4 1 8 0 1941.59 2045.18 42.32 o
4 1 -8 0 1975.79 2055.09 42.69 o
4 1 8 1 19.59 11.28 9.01 <
4 1 -8 1 19.55 18.07 10.39 <
5 1 8 -1 218.87 223.58 16.82 o
5 1 -8 -1 233.42 221.53 17.50 o
5 1 8 0 105.68 105.17 13.13 o
5 1 -8 0 106.24 88.32 14.01 o
5 1 8 1 213.65 209.54 17.19 o
5 1 -8 1 225.76 184.50 17.13 o
6 1 8 -1 63.50 47.64 18.15 <
6 1 -8 -1 62.64 46.52 11.87 o
6 1 8 0 747.67 689.85 37.71 o
6 1 -8 0 772.46 713.12 28.09 o
6 1 8 1 12.99 61.62 20.33 o
6 1 -8 1 11.22 23.49 12.51 <
7 1 8 -1 216.70 180.96 26.11 o
7 1 -8 -1 222.66 185.88 25.41 o
7 1 8 0 46.63 47.56 19.26 <
7 1 -8 0 46.31 62.84 14.11 o
0 2 8 0 1191.90 1108.76 44.03 o
0 2 -8 0 1147.98 1197.68 43.43 o
1 2 8 -1 11.79 14.96 8.40 <
1 2 -8 -1 13.80 22.04 8.81 <
1 2 8 0 744.57 720.71 25.41 o
1 2 -8 0 759.43 716.43 24.88 o
1 2 8 1 6.75 11.80 8.74 <
1 2 -8 1 5.02 26.35 10.52 <
2 2 8 -1 43.83 54.04 8.74 o
2 2 -8 -1 43.12 35.85 10.95 o
2 2 8 0 1019.29 959.47 28.73 o
2 2 -8 0 969.65 959.26 29.18 o
2 2 8 1 8.94 6.97 8.25 <
2 2 -8 1 9.19 12.62 10.56 <
3 2 8 -1 85.24 60.65 9.11 o
3 2 -8 -1 84.89 72.91 12.21 o
3 2 8 0 589.12 629.40 22.14 o
3 2 -8 0 589.63 628.20 29.68 o
3 2 8 1 155.41 150.10 14.64 o
3 2 -8 1 157.05 168.05 16.38 o
4 2 8 -1 140.38 157.45 14.77 o
4 2 -8 -1 138.08 158.96 15.54 o
4 2 8 0 949.01 966.74 30.09 o
4 2 -8 0 926.08 1003.63 31.03 o
4 2 8 1 54.71 27.76 12.26 <
4 2 -8 1 53.86 76.54 16.84 o
5 2 8 -1 104.56 86.46 12.98 o
5 2 -8 -1 105.19 116.96 15.40 o
5 2 8 0 287.07 317.20 20.69 o
5 2 -8 0 288.68 308.21 21.74 o
5 2 8 1 94.54 82.68 19.97 o
5 2 -8 1 92.60 42.43 15.89 <
6 2 8 -1 161.08 178.60 26.18 o
6 2 -8 -1 161.63 131.44 17.02 o
6 2 8 0 362.75 358.19 32.80 o
6 2 -8 0 360.56 384.39 24.93 o
0 3 8 0 429.90 461.95 33.29 o
0 3 -8 0 442.07 482.36 33.85 o
1 3 8 -1 1.99 -1.06 8.20 <
1 3 -8 -1 2.55 -3.32 10.25 <
1 3 8 0 904.69 912.04 30.82 o
1 3 -8 0 911.83 868.92 30.89 o
1 3 8 1 0.58 2.53 9.31 <
1 3 -8 1 0.26 -15.03 11.33 <
2 3 8 -1 23.20 11.99 8.77 <
2 3 -8 -1 21.57 21.61 11.08 <
2 3 8 0 383.23 417.86 22.10 o
2 3 -8 0 402.15 408.52 22.76 o
2 3 8 1 13.89 12.00 10.23 <
2 3 -8 1 13.90 19.28 12.54 <
3 3 8 -1 17.91 18.94 9.14 <
3 3 -8 -1 20.05 16.23 11.39 <
3 3 8 0 786.11 826.38 29.76 o
3 3 -8 0 781.98 833.09 30.22 o
3 3 8 1 66.91 65.94 13.23 o
3 3 -8 1 68.61 72.67 15.09 o
4 3 8 -1 99.02 70.68 14.11 o
4 3 -8 -1 94.25 70.94 16.43 o
4 3 8 0 397.83 437.79 33.98 o
4 3 -8 0 402.05 396.30 22.83 o
5 3 8 -1 36.80 36.90 24.38 <
5 3 -8 -1 37.76 40.72 15.40 <
1 4 8 -1 0.55 8.97 10.73 <
1 4 -8 -1 0.49 4.09 12.14 <
2 4 8 -1 42.53 33.13 12.08 <
2 4 -8 -1 41.35 35.18 14.42 <
1 0 9 0 1838.86 1829.02 49.09 o
1 0 -9 0 1892.07 1761.30 44.80 o
1 0 9 1 1.42 -7.11 7.19 <
1 0 -9 1 1.18 18.26 7.95 <
2 0 9 1 64.65 52.46 9.25 o
2 0 -9 1 54.40 58.18 10.31 o
3 0 9 0 1561.05 1506.04 44.80 o
3 0 -9 0 1598.12 1464.53 42.27 o
3 0 9 1 11.73 10.23 7.90 <
3 0 -9 1 11.28 -3.11 9.27 <
4 0 9 1 199.50 236.35 17.27 o
4 0 -9 1 202.05 222.91 17.68 o
5 0 9 0 775.28 759.07 38.00 o
5 0 -9 0 792.78 804.83 55.68 o
5 0 9 1 5.10 2.00 10.05 <
5 0 -9 1 5.27 2.27 12.02 <
6 0 9 1 97.79 101.00 21.46 o
6 0 -9 1 104.66 83.08 20.27 o
0 1 9 0 148.99 210.78 23.33 o
0 1 -9 0 154.92 152.71 20.34 o
1 1 9 -1 8.72 5.03 7.39 <
1 1 -9 -1 9.06 14.64 7.50 <
1 1 9 0 2000.29 2000.27 42.99 o
1 1 -9 0 1986.00 2040.30 38.46 o
1 1 9 1 0.71 9.76 8.74 <
1 1 -9 1 0.76 8.41 9.24 <
2 1 9 -1 77.18 54.65 9.25 o
2 1 -9 -1 65.81 92.92 12.62 o
2 1 9 0 158.87 150.36 12.91 o
2 1 -9 0 154.62 178.55 16.05 o
2 1 9 1 79.93 56.25 9.57 o
2 1 -9 1 68.96 43.90 13.92 o
3 1 9 -1 26.06 19.26 8.15 <
3 1 -9 -1 26.48 48.50 11.11 o
3 1 9 0 1777.29 1776.56 34.91 o
3 1 -9 0 1767.61 1771.76 40.28 o
3 1 9 1 16.75 16.92 8.01 <
3 1 -9 1 16.76 16.59 11.08 <
4 1 9 -1 152.25 156.77 15.07 o
4 1 -9 -1 149.43 182.25 16.95 o
4 1 9 0 168.15 192.91 16.65 o
4 1 -9 0 171.41 173.68 16.90 o
4 1 9 1 172.39 163.36 15.80 o
4 1 -9 1 170.11 170.46 17.44 o
5 1 9 -1 88.24 74.91 13.09 o
5 1 -9 -1 91.55 59.18 13.43 o
5 1 9 0 988.27 965.55 31.27 o
5 1 -9 0 975.90 1049.12 32.86 o
5 1 9 1 21.90 40.50 12.46 o
5 1 -9 1 24.28 24.18 13.16 <
6 1 9 -1 145.42 177.55 25.38 o
6 1 -9 -1 140.11 161.51 19.98 o
6 1 9 0 59.66 66.24 20.20 o
6 1 -9 0 58.06 65.85 14.74 o
6 1 9 1 113.71 84.60 23.10 o
6 1 -9 1 111.20 119.87 16.53 o
0 2 9 0 474.97 456.51 30.97 o
0 2 -9 0 474.73 467.80 31.76 o
1 2 9 -1 17.95 44.25 9.85 o
1 2 -9 -1 19.08 37.52 10.77 o
1 2 9 0 889.37 889.43 29.30 o
1 2 -9 0 918.62 838.42 28.77 o
1 2 9 1 2.00 -0.08 8.71 <
1 2 -9 1 1.74 -4.25 10.71 <
2 2 9 -1 26.73 23.04 8.32 <
2 2 -9 -1 21.93 46.15 12.32 o
2 2 9 0 522.61 487.79 22.58 o
2 2 -9 0 510.36 565.08 24.81 o
2 2 9 1 45.65 53.74 10.83 o
2 2 -9 1 40.33 54.35 13.06 o
3 2 9 -1 57.04 42.57 9.26 o
3 2 -9 -1 53.77 41.54 11.87 o
3 2 9 0 698.73 701.00 24.59 o
3 2 -9 0 721.91 664.24 32.30 o
3 2 9 1 26.69 15.97 9.82 <
3 2 -9 1 27.82 30.61 12.58 <
4 2 9 -1 57.27 58.92 12.14 o
4 2 -9 -1 57.73 62.45 13.13 o
4 2 9 0 405.44 412.64 26.26 o
4 2 -9 0 404.70 439.28 29.11 o
4 2 9 1 108.54 99.56 16.89 o
4 2 -9 1 109.81 165.89 21.83 o
5 2 9 -1 157.45 174.82 17.34 o
5 2 -9 -1 158.92 157.42 17.89 o
5 2 9 0 346.50 445.28 28.11 o
5 2 -9 0 358.97 353.36 23.89 o
0 3 9 0 684.12 715.71 42.03 o
0 3 -9 0 687.04 685.34 42.06 o
1 3 9 -1 11.26 11.14 9.50 <
1 3 -9 -1 13.10 28.44 12.75 <
1 3 9 0 502.05 480.99 25.24 o
1 3 -9 0 493.24 534.68 26.82 o
2 3 9 -1 24.36 24.89 10.28 <
2 3 -9 -1 21.47 22.36 12.40 <
2 3 9 0 776.14 778.38 30.84 o
2 3 -9 0 783.21 843.87 31.91 o
3 3 9 -1 52.85 39.41 11.04 o
3 3 -9 -1 54.10 61.06 13.40 o
3 3 9 0 409.35 400.34 23.56 o
3 3 -9 0 401.31 431.84 25.28 o
4 3 9 -1 38.47 45.44 16.73 <
4 3 -9 -1 36.24 19.65 12.50 <
0 0 10 0 2377.12 2023.09 94.28 o
0 0 -10 0 2390.96 2465.90 64.02 o
1 0 10 1 51.09 40.94 10.49 o
1 0 -10 1 49.79 54.76 10.10 o
2 0 10 0 1646.51 1571.86 48.83 o
2 0 -10 0 1647.58 1594.34 45.59 o
2 0 10 1 11.37 11.75 8.69 <
2 0 -10 1 11.10 17.34 11.04 <
3 0 10 1 133.51 118.11 12.13 o
3 0 -10 1 126.17 142.51 16.01 o
4 0 10 0 1082.82 1136.59 47.46 o
4 0 -10 0 1060.57 992.92 62.56 o
4 0 10 1 8.99 7.36 10.62 <
4 0 -10 1 9.58 9.25 12.93 <
5 0 10 1 255.09 204.27 18.35 o
5 0 -10 1 256.40 245.17 28.05 o
0 1 10 0 1112.31 1282.17 50.27 o
0 1 -10 0 1145.82 1166.52 45.71 o
1 1 10 -1 30.36 14.01 8.96 <
1 1 -10 -1 29.81 30.26 10.40 <
1 1 10 0 176.03 205.30 16.07 o
1 1 -10 0 172.58 217.96 17.53 o
1 1 10 1 12.64 31.69 10.68 <
1 1 -10 1 12.04 48.34 12.09 o
2 1 10 -1 12.83 -4.37 8.17 <
2 1 -10 -1 12.15 21.30 10.98 <
2 1 10 0 837.13 828.30 24.95 o
2 1 -10 0 864.93 770.93 28.11 o
2 1 10 1 9.61 15.20 9.62 <
2 1 -10 1 8.98 5.52 11.84 <
3 1 10 -1 48.70 59.68 10.07 o
3 1 -10 -1 45.16 51.03 12.57 o
3 1 10 0 162.86 172.85 13.98 o
3 1 -10 0 165.09 171.50 17.32 o
3 1 10 1 65.11 79.42 10.76 o
3 1 -10 1 62.83 68.09 16.77 o
4 1 10 -1 34.48 42.95 12.14 o
4 1 -10 -1 34.74 51.67 13.49 o
4 1 10 0 526.19 549.49 25.25 o
4 1 -10 0 524.84 512.47 25.66 o
4 1 10 1 2.73 5.99 10.28 <
4 1 -10 1 2.96 12.06 12.75 <
5 1 10 -1 138.70 132.49 16.56 o
5 1 -10 -1 143.45 151.53 20.15 o
5 1 10 0 73.98 95.71 14.93 o
5 1 -10 0 72.23 56.17 14.56 o
5 1 10 1 131.92 108.91 15.45 o
5 1 -10 1 134.85 126.63 17.40 o
0 2 10 0 1169.16 1093.71 48.63 o
0 2 -10 0 1166.86 1102.38 47.30 o
1 2 10 -1 22.20 38.55 11.02 o
1 2 -10 -1 22.15 33.59 12.18 <
1 2 10 0 480.12 495.34 24.24 o
1 2 -10 0 476.13 454.00 24.49 o
1 2 10 1 10.59 19.46 10.64 <
1 2 -10 1 10.41 30.89 13.48 <
2 2 10 -1 15.25 31.14 10.30 o
2 2 -10 -1 14.66 33.56 12.38 <
2 2 10 0 1024.71 995.32 32.53 o
2 2 -10 0 1028.63 990.63 33.15 o
2 2 10 1 14.79 9.36 9.91 <
2 2 -10 1 13.50 11.71 13.00 <
3 2 10 -1 77.06 71.50 11.99 o
3 2 -10 -1 74.81 103.62 19.17 o
3 2 10 0 412.83 398.81 22.66 o
3 2 -10 0 421.93 386.77 23.92 o
3 2 10 1 84.16 69.10 13.12 o
3 2 -10 1 80.97 86.30 16.38 o
4 2 10 -1 65.20 73.70 13.43 o
4 2 -10 -1 68.83 62.11 15.05 o
4 2 10 0 501.96 509.64 29.46 o
4 2 -10 0 483.26 567.19 33.05 o
1 3 10 -1 2.65 8.58 10.05 <
1 3 -10 -1 2.67 22.54 13.73 <
2 3 10 -1 14.13 29.82 11.31 <
2 3 -10 -1 13.25 43.09 14.57 <
1 0 11 0 1152.97 1016.46 47.70 o
1 0 -11 0 1140.43 1171.30 32.66 o
1 0 11 1 3.49 11.87 10.52 <
1 0 -11 1 3.80 19.26 10.03 <
2 0 11 1 16.01 28.45 9.25 o
2 0 -11 1 20.32 15.94 12.64 <
3 0 11 0 674.58 607.93 32.85 o
3 0 -11 0 670.09 674.62 55.34 o
3 0 11 1 15.86 13.59 9.90 <
3 0 -11 1 15.46 23.29 13.49 <
4 0 11 1 60.39 68.31 14.58 o
4 0 -11 1 67.28 27.28 18.52 <
0 1 11 0 176.56 171.14 23.95 o
0 1 -11 0 176.22 180.27 25.55 o
1 1 11 -1 9.52 7.48 9.85 <
1 1 -11 -1 9.04 34.85 11.87 <
1 1 11 0 1612.84 1645.06 42.72 o
1 1 -11 0 1600.20 1710.35 41.71 o
1 1 11 1 11.63 23.72 11.28 <
1 1 -11 1 11.93 23.43 13.04 <
2 1 11 -1 15.70 21.03 9.01 <
2 1 -11 -1 19.32 27.83 12.81 <
2 1 11 0 86.07 108.43 14.03 o
2 1 -11 0 89.65 102.02 16.18 o
2 1 11 1 19.05 32.45 10.80 o
2 1 -11 1 23.97 46.57 14.57 o
3 1 11 -1 13.25 22.47 9.79 <
3 1 -11 -1 14.70 19.97 12.70 <
3 1 11 0 1067.84 1042.91 32.36 o
3 1 -11 0 1060.99 1105.46 41.72 o
3 1 11 1 8.78 24.69 9.95 <
3 1 -11 1 7.98 4.76 12.88 <
4 1 11 -1 80.20 77.33 15.31 o
4 1 -11 -1 89.10 62.20 17.60 o
4 1 11 0 75.13 88.71 15.17 o
4 1 -11 0 75.32 113.59 17.51 o
0 2 11 0 554.54 535.64 37.66 o
0 2 -11 0 555.50 480.60 36.96 o
1 2 11 -1 35.29 58.61 13.03 o
1 2 -11 -1 33.87 30.37 13.50 <
1 2 11 0 534.33 500.50 29.89 o
1 2 -11 0 529.98 540.13 27.56 o
2 2 11 -1 5.70 27.01 10.66 <
2 2 -11 -1 7.73 23.92 13.87 <
2 2 11 0 356.11 317.68 22.21 o
2 2 -11 0 362.30 359.45 25.10 o
3 2 11 -1 37.96 41.68 11.72 o
3 2 -11 -1 37.86 34.43 14.58 <
0 0 12 0 1653.04 1877.85 96.57 o
1 0 12 1 18.59 30.98 11.59 <
1 0 -12 1 16.40 19.06 11.84 <
2 0 12 0 1088.44 1049.77 44.64 o
2 0 -12 0 1081.02 1045.83 71.48 o
2 0 12 1 1.54 6.21 11.32 <
2 0 -12 1 1.63 16.10 14.38 <
0 1 12 0 887.87 929.06 48.91 o
0 1 -12 0 891.79 920.67 47.54 o
1 1 12 -1 14.65 47.75 12.07 o
1 1 -12 -1 12.74 45.10 14.51 o
1 1 12 0 113.96 100.86 15.75 o
1 1 -12 0 113.79 106.70 17.34 o
2 1 12 -1 16.70 11.46 11.05 <
2 1 -12 -1 17.28 17.90 13.53 <
#BEGIN Loops that were not found in dictionaries:
loop_
_restr_distance_atom_site_label_1
_restr_distance_atom_site_label_2
_restr_distance_site_symmetry_2
_restr_distance_target
_restr_distance_target_weight_param
B1 O4 . 1.357 0.03
B1 O4 4_7555 1.357 0.03
loop_
_jana_atom_site_displace_legendre_atom_site_label
_jana_atom_site_displace_legendre_axis
_jana_atom_site_displace_legendre_param_order
_jana_atom_site_displace_legendre_param_coeff
O1 x 1 0.007(2)
O1 y 1 0.004(4)
O1 z 1 0.006(3)
O1 x 2 0.061(4)
O1 y 2 -0.016(10)
O1 z 2 0.063(5)
O4 x 1 -0.020(2)
O4 y 1 0.014(5)
O4 z 1 -0.0052(17)
O4 x 2 0.050(2)
O4 y 2 0.012(13)
O4 z 2 -0.005(4)
loop_
_publcif_info_datablock.id
_publcif_info_datablock.publ_exptl
_publcif_info_datablock.publ_geom
_publcif_info_datablock.structure
{2a53d1a0-df4d-4d3b-9a96-c9a2db1cf376} ? ? ?
{440c7ef7-74ba-4abb-8fd6-eb8b744d504a} y y y
loop_
_publcif_info_exptl_table_extra_item
sin_theta_over_lambda_max
loop_
_publcif_info_tables.block_id
_publcif_info_tables.reference_item
{2a53d1a0-df4d-4d3b-9a96-c9a2db1cf376} '_publcif_info_datablock.publ_exptl'
#END Loops that were not found in dictionaries
