#------------------------------------------------------------------------------
#$Date: 2022-08-20 02:03:56 +0300 (Sat, 20 Aug 2022) $
#$Revision: 277331 $
#$URL: file:///home/coder/svn-repositories/cod/cif/7/71/10/7711030.cif $
#------------------------------------------------------------------------------
#
# This file is available in the Crystallography Open Database (COD),
# http://www.crystallography.net/
#
# All data on this site have been placed in the public domain by the
# contributors.
#
data_7711030
loop_
_publ_author_name
'Hao, Yucheng'
'Murphy, Gabriel L.'
'Kegler, Philip'
'Li, Yan'
'Kowalski, Piotr M.'
'Blouin, Simon'
'Zhang, Yang'
'Wang, Shuao'
'Robben, Lars'
'Gesing, Thorsten M.'
'Alekseev, Evgeny V.'
_publ_section_title
;
 Understanding the role of flux, pressure and temperature on polymorphism
 in ThB2O5
;
_journal_name_full               'Dalton Transactions'
_journal_paper_doi               10.1039/D2DT01049F
_journal_year                    2022
_chemical_formula_sum            'B2 O5 Th'
_chemical_formula_weight         333.66
_space_group_crystal_system      monoclinic
_space_group_IT_number           11
_space_group_name_Hall           '-P 2yb'
_space_group_name_H-M_alt        'P 1 21/m 1'
_audit_creation_method           SHELXL-2014/7
_audit_update_record
;
2021-08-30 deposited with the CCDC.	2022-08-09 downloaded from the CCDC.
;
_cell_angle_alpha                90
_cell_angle_beta                 106.316(5)
_cell_angle_gamma                90
_cell_formula_units_Z            2
_cell_length_a                   4.2535(2)
_cell_length_b                   6.8733(3)
_cell_length_c                   6.3242(3)
_cell_measurement_reflns_used    1207
_cell_measurement_temperature    293(2)
_cell_measurement_theta_max      34.5884
_cell_measurement_theta_min      3.3498
_cell_volume                     177.446(15)
_computing_structure_refinement  'SHELXL-2014/7 (Sheldrick, 2014)'
_diffrn_ambient_temperature      293(2)
_diffrn_measured_fraction_theta_full 1.000
_diffrn_measured_fraction_theta_max 0.947
_diffrn_measurement_device_type  'SuperNova, Dual, Cu at zero, Eos'
_diffrn_radiation_type           MoK\a
_diffrn_radiation_wavelength     0.71073
_diffrn_reflns_av_R_equivalents  0.0517
_diffrn_reflns_av_unetI/netI     0.0585
_diffrn_reflns_Laue_measured_fraction_full 1.000
_diffrn_reflns_Laue_measured_fraction_max 0.947
_diffrn_reflns_limit_h_max       6
_diffrn_reflns_limit_h_min       -6
_diffrn_reflns_limit_k_max       8
_diffrn_reflns_limit_k_min       -10
_diffrn_reflns_limit_l_max       9
_diffrn_reflns_limit_l_min       -9
_diffrn_reflns_number            2181
_diffrn_reflns_point_group_measured_fraction_full 1.000
_diffrn_reflns_point_group_measured_fraction_max 0.947
_diffrn_reflns_theta_full        25.242
_diffrn_reflns_theta_max         34.668
_diffrn_reflns_theta_min         3.357
_exptl_absorpt_coefficient_mu    41.901
_exptl_absorpt_correction_T_max  1.00000
_exptl_absorpt_correction_T_min  0.77457
_exptl_absorpt_correction_type   multi-scan
_exptl_crystal_colour            colorless
_exptl_crystal_density_diffrn    6.245
_exptl_crystal_description       block
_exptl_crystal_F_000             280
_exptl_crystal_size_max          0.08
_exptl_crystal_size_mid          0.06
_exptl_crystal_size_min          0.04
_refine_diff_density_max         2.548
_refine_diff_density_min         -2.137
_refine_diff_density_rms         0.478
_refine_ls_extinction_coef       0.044(2)
_refine_ls_extinction_expression Fc^*^=kFc[1+0.001xFc^2^\l^3^/sin(2\q)]^-1/4^
_refine_ls_extinction_method     'SHELXL-2014/7 (Sheldrick 2014'
_refine_ls_goodness_of_fit_ref   1.036
_refine_ls_hydrogen_treatment    undef
_refine_ls_matrix_type           full
_refine_ls_number_parameters     47
_refine_ls_number_reflns         769
_refine_ls_number_restraints     12
_refine_ls_restrained_S_all      1.031
_refine_ls_R_factor_all          0.0291
_refine_ls_R_factor_gt           0.0260
_refine_ls_shift/su_max          0.001
_refine_ls_shift/su_mean         0.000
_refine_ls_structure_factor_coef Fsqd
_refine_ls_weighting_details
'w=1/[\s^2^(Fo^2^)+(0.0069P)^2^] where P=(Fo^2^+2Fc^2^)/3'
_refine_ls_weighting_scheme      calc
_refine_ls_wR_factor_gt          0.0517
_refine_ls_wR_factor_ref         0.0546
_reflns_Friedel_coverage         0.000
_reflns_number_gt                700
_reflns_number_total             769
_reflns_threshold_expression     'I > 2\s(I)'
_cod_data_source_file            d2dt01049f2.cif
_cod_data_source_block           a-ThB2O5
_cod_original_cell_volume        177.445(15)
_cod_original_sg_symbol_H-M      'P 21/m'
_cod_database_code               7711030
_shelx_shelxl_version_number     2014/7
_shelx_space_group_comment
;
The symmetry employed for this shelxl refinement is uniquely defined
by the following loop, which should always be used as a source of
symmetry information in preference to the above space-group names.
They are only intended as comments.
;
_shelx_res_file
;

    56021.res created by SHELXL-2014/7


TITL 56021 in P21/m
CELL  0.71073    4.2535    6.8733    6.3242    90.000   106.316    90.000
ZERR        2    0.0002    0.0003    0.0003     0.000     0.005     0.000
LATT   1
SYMM             - X ,    0.50000 + Y ,            - Z
SFAC  B  O Th
UNIT     4   10   2
L.S. 5
FMAP 2
PLAN -20
ACTA
ISOR 0.001 O4 B1
BOND $H
CONF
WGHT    0.006900
EXTI    0.043736
FVAR       5.72606
TH1   3    0.161808    0.250000    1.412930    10.50000    0.00556    0.00608 =
         0.00505    0.00000    0.00228    0.00000
O1    2    0.070359    0.250000    0.992218    10.50000    0.00626    0.01517 =
         0.00288    0.00000    0.00270    0.00000
O2    2    0.599231    0.250000    1.215109    10.50000    0.00411    0.01838 =
         0.00814    0.00000    0.00173    0.00000
O3    2   -0.160625    0.081090    0.641968    11.00000    0.01369    0.00605 =
         0.01093    0.00045    0.00506   -0.00116
O4    2   -0.508188    0.250000    0.811978    10.50000    0.00637    0.00799 =
         0.00732    0.00000    0.00066    0.00000
B1    1   -0.179912    0.250000    0.776532    10.50000    0.00807    0.00851 =
         0.00781    0.00000    0.00280    0.00000
B2    1    0.398851    0.250000    1.006513    10.50000    0.00607    0.00986 =
         0.00433    0.00000    0.00231    0.00000
HKLF 4

REM  56021 in P21/m
REM R1 =  0.0260 for     700 Fo > 4sig(Fo)  and  0.0291 for all     769 data
REM     47 parameters refined using     12 restraints

END

WGHT      0.0043      0.0000

REM Highest difference peak  2.548,  deepest hole -2.137,  1-sigma level  0.478
Q1    1   0.3881  0.2500  1.4584  10.50000  0.05    2.55
Q2    1  -0.1541  0.2500  1.5369  10.50000  0.05    2.07
Q3    1  -0.0732  0.0832  1.3796  11.00000  0.05    1.79
Q4    1  -0.1104  0.2500  1.1008  10.50000  0.05    1.69
Q5    1   0.4391  0.2500  1.3101  10.50000  0.05    1.46
Q6    1  -0.3011  0.2500  1.6261  10.50000  0.05    1.42
Q7    1  -0.2215  0.2500  1.3338  10.50000  0.05    1.40
Q8    1   0.0487  0.1205  1.4524  11.00000  0.05    1.39
Q9    1   0.1936  0.1800  1.0784  11.00000  0.05    1.36
Q10   1   0.1872  0.2500  1.2141  10.50000  0.05    1.35
Q11   1  -0.3510  0.2500  0.9753  10.50000  0.05    1.31
Q12   1  -0.0618  0.1810  1.3575  11.00000  0.05    1.30
Q13   1   0.6040  0.1955  1.7287  11.00000  0.05    1.30
Q14   1   0.3434  0.0532  1.4191  11.00000  0.05    1.29
Q15   1   0.2132  0.2500  1.6417  10.50000  0.05    1.24
Q16   1   0.2232  0.2500  0.9783  10.50000  0.05    1.24
Q17   1   0.4846  0.1856  1.8074  11.00000  0.05    1.22
Q18   1  -0.0130  0.1027  1.2356  11.00000  0.05    1.22
Q19   1  -0.0138  0.1761  1.5148  11.00000  0.05    1.21
Q20   1   0.3330  0.0281  1.7639  11.00000  0.05    1.19
;
_shelx_res_checksum              49139
_shelx_hkl_file
;
   0 -10   0 136187. 13339.4   3
   0 -10   1 57536.9 8297.58   3
   0 -10  -1 64791.7 9192.69   3
   0 -10  -2 29475.7 6309.91   3
   0 -10   2 16926.5 4455.25   3
   0 -10   3-287.447 1540.67   3
   0 -10   3-884.331 1385.26   4
   0  -9   0 2676.07 1667.40   3
   0  -9   1 46436.2 6835.40   3
   0  -9  -1 45954.0 7206.37   3
   0  -9   2 118944. 11342.8   3
   0  -9  -2 150784. 13782.1   3
   0  -9  -3 136441. 13793.2   3
   0  -9   3 118021. 11239.6   3
   0  -9   3 121473. 11415.8   4
   0  -9   4 60302.8 8103.09   4
   0  -9  -4 65731.5 9838.39   3
   0  -8   0 204054. 14661.4   3
   0  -8  -1 89475.5 9550.68   3
   0  -8   1 87446.2 8868.59   3
   0  -8   2 32190.0 5168.30   3
   0  -8  -2 33133.8 5992.76   3
   0  -8   3 209.498 637.332   4
   0  -8  -3 38.7750 1579.33   3
   0  -8   3 266.249 962.029   3
   0  -8   4 21888.3 4387.29   4
   0  -8  -4 30931.2 6401.25   3
   0  -8  -5 136795. 14474.6   3
   0  -8   5 119212. 11408.1   4
   0  -8   6 77376.4 9371.94   4
   0  -8  -6 91667.4 12070.8   3
   0  -7   0 1224.71 1345.49   3
   0  -7   1 46743.3 5920.36   3
   0  -7  -1 56235.2 6912.24   3
   0  -7  -2 153763. 12639.4   3
   0  -7   2 150943. 11028.5   3
   0  -7  -3 178760. 14439.5   3
   0  -7   3 165802. 11604.0   3
   0  -7   3 166266. 11745.0   4
   0  -7  -4 119872. 12160.5   3
   0  -7   4 107431. 9612.69   4
   0  -7  -5 37400.7 7054.10   3
   0  -7   5 19961.7 4234.43   4
   0  -7   6 2343.73 1604.76   4
   0  -7  -6 1135.68 1208.70   3
   0  -7  -7 45118.7 8348.51   3
   0  -6   0 424207. 18421.1   2
   0  -6   0 443793. 20683.0   3
   0  -6   1 164537. 11040.8   3
   0  -6  -1 190268. 12652.5   3
   0  -6  -1 187166. 9505.62   2
   0  -6  -2 42740.5 6001.48   3
   0  -6   2 41708.5 4986.48   3
   0  -6  -3 4376.52 1943.52   3
   0  -6  -3 3741.17 1763.88   1
   0  -6   3 5715.59 1777.63   4
   0  -6   3 5731.82 1810.60   3
   0  -6   4 55954.1 6326.98   4
   0  -6  -4 59582.5 7141.48   1
   0  -6  -4 76511.7 9046.96   3
   0  -6   5 214194. 13866.2   4
   0  -6  -5 203653. 14669.5   1
   0  -6   6 107557. 10047.9   4
   0  -6   7 50912.2 7186.85   4
   0  -5   0 2245.73 986.220   2
   0  -5   0 542.436 907.070   3
   0  -5  -1 76263.5 7054.08   3
   0  -5  -1 68610.7 4750.51   2
   0  -5   1 63503.6 5811.70   3
   0  -5   1 64947.9 5762.06   2
   0  -5  -2 211908. 12403.7   1
   0  -5   2 211400. 11568.2   3
   0  -5  -2 211129. 13738.0   3
   0  -5  -2 231832. 9579.66   2
   0  -5   3 268114. 13344.2   3
   0  -5  -3 248826. 14461.8   1
   0  -5   3 264107. 13720.7   4
   0  -5   4 172468. 10857.3   4
   0  -5  -4 151996. 11237.9   1
   0  -5  -5 41941.3 5899.45   1
   0  -5   5 40589.6 5267.12   4
   0  -5  -6 1036.18 1029.96   1
   0  -5   6-181.270 720.842   4
   0  -5  -7 55692.0 7688.44   1
   0  -5   7 64654.3 7805.60   4
   0  -5   8 99017.1 10559.5   4
   0  -4   0 480317. 19584.3   3
   0  -4   0 483348. 18063.9   2
   0  -4   1 175940. 9393.95   3
   0  -4   1 177086. 9571.86   2
   0  -4  -1 177381. 8047.69   2
   0  -4  -1 184202. 10849.0   3
   0  -4  -2 70530.9 5944.12   1
   0  -4   2 73094.9 5444.42   3
   0  -4  -2 74389.6 4283.15   2
   0  -4  -3 87.6828 475.839   1
   0  -4   3-463.960 620.893   3
   0  -4  -4 50548.7 5603.00   1
   0  -4   4 46880.2 4950.82   4
   0  -4   5 242977. 13762.7   4
   0  -4  -5 258144. 15063.1   1
   0  -4   6 158776. 11347.5   4
   0  -4  -6 165639. 12545.5   1
   0  -4  -7 94665.6 9890.27   1
   0  -4   7 86552.9 8786.77   4
   0  -4  -8 15664.3 4168.16   1
   0  -4   8 11986.3 3414.99   4
   0  -3   0-104.157 208.126   3
   0  -3   0-88.0582 320.338   2
   0  -3   1 174688. 8754.49   2
   0  -3  -1 171992. 7201.51   2
   0  -3  -1 177285. 8895.65   1
   0  -3   1 180020. 8487.34   3
   0  -3  -1 173224. 9561.32   3
   0  -3  -2 373348. 16032.7   1
   0  -3   2 403008. 15144.6   3
   0  -3  -3 354362. 16130.6   1
   0  -3   3 387732. 15706.2   4
   0  -3  -4 183445. 10865.9   1
   0  -3   4 187545. 10285.3   4
   0  -3   5 29160.4 3917.97   4
   0  -3  -5 26401.6 4026.82   1
   0  -3  -6 9153.53 2619.01   1
   0  -3   6 5228.86 1819.79   4
   0  -3   7 79555.3 8170.97   4
   0  -3  -7 80755.1 8799.56   1
   0  -3  -8 95507.9 10438.2   1
   0  -3   8 95699.9 9864.78   4
   0  -3  -9 99844.3 11479.6   1
   0  -2   0 590574. 18750.4   2
   0  -2   0 551505. 19509.6   3
   0  -2   1 190305. 7806.77   3
   0  -2   1 186929. 8394.26   2
   0  -2  -1 183405. 8200.68   1
   0  -2   2 101205. 5433.22   4
   0  -2  -2 94174.7 5703.08   1
   0  -2  -3 810.995 597.775   1
   0  -2   3-541.601 459.148   4
   0  -2   4 58881.5 4905.49   4
   0  -2  -4 53531.8 5048.85   1
   0  -2  -5 343653. 16865.5   1
   0  -2   5 351868. 16319.5   4
   0  -2  -6 190620. 12600.7   1
   0  -2   6 190908. 11926.9   4
   0  -2  -7 113180. 10279.6   1
   0  -2   7 112825. 9707.42   4
   0  -2  -8 19525.6 4554.06   1
   0  -2   8 11055.6 3324.96   4
   0  -2  -9 4039.70 2251.67   1
   0  -2   9 5633.50 2715.05   4
   0  -1  -1 111135. 4881.15   1
   0  -1   1 116245. 4633.09   3
   0  -1   1 113769. 4736.70   4
   0  -1   2 356220. 12809.0   4
   0  -1  -2 352130. 12984.2   1
   0  -1  -3 384351. 15193.8   1
   0  -1   3 395487. 14948.9   4
   0  -1  -4 229566. 11523.6   1
   0  -1   4 241849. 11415.5   4
   0  -1  -5 57190.2 5622.39   1
   0  -1   5 66451.5 5773.29   4
   0  -1  -6 2417.31 1359.07   1
   0  -1   6 59.1229 672.210   4
   0  -1   7 84522.5 8283.85   4
   0  -1  -7 86960.6 8741.34   1
   0  -1   8 140570. 12093.7   4
   0  -1  -8 127994. 11865.3   1
   0  -1  -9 113922. 12035.1   1
   0  -1   9 115480. 11827.6   4
   0   0   1 319095. 10427.9   4
   0   0   2 88430.9 4605.60   4
   0   0   3 18102.1 2226.79   5
   0   0   3 19702.4 2319.86   4
   0   0   4 115919. 7249.03   4
   0   0   4 110477. 7076.19   5
   0   0   5 374744. 17152.6   4
   0   0   5 389451. 17320.6   5
   0   0   6 178207. 11580.4   4
   0   0  -7 90700.8 8880.34   1
   0   0   7 89995.0 8631.21   4
   0   0   8 10434.9 3071.58   4
   0   0  -8 6812.95 2852.96   1
   0   0  -9-166.059 1293.16   1
   0   0   9 3963.70 2095.54   4
   0   1   2 321896. 12369.3   4
   0   1   2 321857. 12145.9   5
   0   1   3 372758. 15041.5   4
   0   1   3 377946. 14771.8   5
   0   1   4 250012. 12291.6   4
   0   1   4 240168. 11710.5   5
   0   1   5 63502.3 5943.65   4
   0   1   5 53581.2 5256.12   5
   0   1   6 3303.27 1627.11   4
   0   1   6 2007.66 916.843   5
   0   1   7 81031.9 8321.36   4
   0   1   7 81855.3 8047.45   5
   0   1   8 129151. 11719.0   4
   0   1  -9 107347. 11631.9   1
   0   1   9 87750.1 10416.1   4
   0   2   3-824.562 602.058   4
   0   2   3 289.709 416.385   5
   0   2   4 41011.3 4213.51   5
   0   2   4 42120.0 4533.39   4
   0   2   5 274492. 14864.3   4
   0   2   5 291208. 14567.0   5
   0   2   6 208278. 13152.4   4
   0   2   6 175244. 11658.4   5
   0   2   7 101094. 9217.73   5
   0   2   7 119182. 10456.1   4
   0   2   8 9633.95 2961.20   5
   0   2   8 15127.2 3904.56   4
   0   2  -9 3000.74 1982.40   1
   0   3   4 143369. 9093.52   5
   0   3   5 22216.0 3526.61   5
   0   3   6 7381.53 2152.92   5
   0   3   7 65424.2 7415.16   5
   0   3   8 76274.8 8582.64   5
   0   4   4 42828.8 4903.27   5
   0   4   5 238978. 13835.8   5
   0   4   6 142889. 10891.6   5
   0   4   7 91656.5 9103.02   5
   0   4   8 10388.3 3084.80   5
   0   5   5 39920.1 5386.58   5
   0   5   6-173.406 1136.08   5
   0   5   7 59914.1 7540.02   5
   0   6   5 197530. 13670.1   5
   0   6   6 95694.1 9506.88   5
   0   6   7 57639.1 7562.07   5
   0   7   5 31655.6 5387.02   5
   0   7   6 2059.57 1218.22   5
   0   8   5 138295. 12395.4   5
   0   8   6 92807.2 10204.6   5
   1 -10  -3 91864.6 11393.8   3
  -1 -10   3 73105.4 8941.33   4
  -1 -10   3 75651.6 8957.83   3
   1 -10  -2 22837.6 5428.78   3
  -1 -10   2 20345.3 4541.04   3
  -1 -10   1 517.110 958.121   3
   1 -10  -1 16.6179 1033.46   3
  -1 -10   0 31944.6 6052.82   3
   1 -10   0 25412.3 5642.62   3
  -1 -10  -1 87802.7 10837.6   3
   1 -10   1 70372.6 9450.27   3
   1 -10   2 88760.7 10506.6   3
  -1 -10  -2 83220.5 11000.6   3
   1  -9  -5 52772.3 8631.86   3
  -1  -9   5 42245.4 6750.58   4
  -1  -9   4-714.250 1657.74   4
   1  -9  -4 6128.02 3090.13   3
   1  -9  -3 15904.3 4536.82   3
  -1  -9   3 16683.3 3917.48   3
  -1  -9   3 13865.1 3662.15   4
  -1  -9   2 115199. 10810.2   3
   1  -9  -2 115722. 11892.9   3
   1  -9  -1 141027. 13188.9   3
  -1  -9   1 160923. 13273.4   3
   1  -9   0 133977. 12231.5   3
  -1  -9   0 97712.3 10654.6   3
  -1  -9  -1 33019.2 6243.30   3
   1  -9   1 22598.0 4874.17   3
  -1  -9  -2 1383.52 1405.51   3
   1  -9   2-513.181 1636.91   3
   1  -9   3 59665.0 8065.44   4
  -1  -9  -3 75930.5 10412.7   3
   1  -9   3 53383.7 7755.62   3
  -1  -9  -4 108075. 12991.2   3
   1  -9   4 91811.1 10342.9   4
  -1  -8   6 25390.4 5124.53   4
   1  -8  -6 26705.5 6110.10   3
   1  -8  -5 86875.5 10758.6   3
  -1  -8   5 83641.6 9104.32   4
   1  -8  -4 134739. 13057.4   3
  -1  -8   4 116529. 10558.1   4
  -1  -8   4 122308. 10073.6   3
  -1  -8   3 107036. 9637.66   4
   1  -8  -3 117411. 11594.6   3
  -1  -8   3 116248. 9839.91   3
  -1  -8   2 34807.7 5799.55   2
  -1  -8   2 28367.0 4822.33   3
   1  -8  -2 31108.3 5558.17   3
  -1  -8   1-241.703 671.471   2
  -1  -8   1 240.575 611.549   3
   1  -8  -1 1461.42 1295.41   3
   1  -8   0 40125.4 6058.73   3
  -1  -8   0 40289.7 6155.96   3
   1  -8   1 125614. 10915.7   3
  -1  -8  -1 104542. 10797.0   3
   1  -8   2 148617. 12235.3   3
  -1  -8  -2 174354. 14713.6   3
   1  -8   3 69679.9 8227.66   3
  -1  -8  -3 98729.4 11484.1   3
   1  -8   3 86820.5 8994.32   4
  -1  -8  -4 25569.8 6045.00   3
   1  -8   4 26980.2 5192.41   4
  -1  -8  -5 1335.18 1814.43   3
   1  -8   5 3109.17 1844.33   4
  -1  -7   7 120295. 11554.0   4
   1  -7  -7 127341. 13729.4   3
   1  -7  -6 88101.1 11026.5   3
  -1  -7   6 90557.6 9442.02   4
  -1  -7   5 41039.9 5929.08   4
   1  -7  -5 64386.0 8743.04   3
  -1  -7   4-912.271 871.035   4
   1  -7  -4-242.652 738.336   3
  -1  -7   4 33.3517 503.829   3
  -1  -7   3 32450.5 4705.73   4
  -1  -7   3 37991.0 4957.36   3
  -1  -7   3 33823.6 5736.83   2
   1  -7  -3 34877.6 5670.23   3
  -1  -7   2 166413. 12623.7   2
   1  -7  -2 161670. 12598.8   3
  -1  -7   2 170814. 11576.3   3
  -1  -7   1 180793. 12295.2   3
  -1  -7   1 188305. 12783.0   2
   1  -7  -1 181048. 12969.4   3
   1  -7   0 140545. 10936.2   3
  -1  -7   0 130415. 10807.3   3
  -1  -7   0 137469. 10075.0   2
   1  -7   1 43062.3 5732.95   3
  -1  -7  -1 34653.2 4530.97   2
  -1  -7  -1 37250.6 5825.65   3
  -1  -7  -2 638.005 953.415   3
   1  -7   2 776.430 943.143   3
   1  -7   3 73508.6 7778.25   3
  -1  -7  -3 75129.6 9497.28   3
   1  -7   3 59029.8 6915.57   4
   1  -7   4 106593. 9952.51   4
  -1  -7  -4 128315. 12547.4   1
  -1  -7  -4 136848. 13680.9   3
   1  -7   5 94892.6 9768.60   4
  -1  -7  -5 117510. 12372.6   1
   1  -7   6 65890.0 8365.35   4
  -1  -7  -6 69305.4 9794.05   1
   1  -6  -8 38246.4 7450.17   3
   1  -6  -7 2369.58 1515.92   3
  -1  -6   7-564.922 1139.54   4
   1  -6  -6 23389.2 5328.33   3
  -1  -6   6 12869.5 3289.67   4
  -1  -6   5 103671. 8989.10   4
   1  -6  -5 97660.8 10432.7   3
  -1  -6   4 201585. 11836.2   3
  -1  -6   4 216168. 12961.5   4
   1  -6  -4 212320. 15100.6   3
   1  -6  -3 247986. 15606.7   3
  -1  -6   3 235187. 13155.6   4
  -1  -6   3 220954. 15027.0   2
  -1  -6   3 232345. 12658.5   3
  -1  -6   2 83449.6 7953.04   2
   1  -6  -2 71555.1 7459.08   3
  -1  -6   2 76379.2 6701.95   3
   1  -6  -2 76497.9 7102.87   6
   1  -6  -1-412.007 602.873   3
  -1  -6   1-235.187 942.249   2
   1  -6  -1 53.8871 744.354   6
  -1  -6   1-62.1991 731.100   3
   1  -6   0 87507.8 8281.47   6
  -1  -6   0 69112.7 7096.56   3
   1  -6   0 74644.0 7093.94   3
  -1  -6   0 61955.2 6254.93   2
  -1  -6  -1 249682. 15675.8   3
   1  -6   1 235511. 13890.8   3
  -1  -6  -1 230429. 13047.6   2
   1  -6   1 257796. 16088.9   6
  -1  -6  -2 269514. 17100.6   1
  -1  -6  -2 297886. 18311.8   3
   1  -6   2 277772. 15322.7   3
  -1  -6  -2 294300. 14517.0   2
  -1  -6  -3 109242. 10442.8   1
   1  -6   3 102052. 8616.07   4
  -1  -6  -4 23185.5 4875.48   1
   1  -6   4 15557.5 3375.50   4
   1  -6   5 5779.94 2136.09   4
  -1  -6  -5 3914.18 1734.40   1
   1  -6   6 54947.3 7259.38   4
  -1  -6  -6 71616.9 9595.01   1
   1  -6   7 96979.7 10270.9   4
  -1  -6  -7 99770.9 11895.7   1
  -1  -5   8 73688.8 8929.04   4
  -1  -5   7 190918. 13862.9   4
  -1  -5   6 125480. 10153.9   4
  -1  -5   5 73373.6 7084.91   4
   1  -5  -5 93427.1 9400.03   3
   1  -5  -4 1334.13 908.248   1
   1  -5  -4 53.8574 935.963   3
  -1  -5   4 213.455 560.119   4
   1  -5  -3 46798.5 4692.52   6
  -1  -5   3 54778.3 6427.52   2
   1  -5  -3 45801.4 5914.20   3
  -1  -5   3 50761.9 5046.81   4
  -1  -5   3 55191.5 4866.27   3
   1  -5  -2 232078. 12671.8   6
   1  -5  -2 219361. 13421.0   3
  -1  -5   2 254363. 14229.0   2
  -1  -5   2 256746. 12462.9   3
   1  -5  -1 257030. 13816.1   3
   1  -5  -1 256404. 13864.0   6
  -1  -5   1 257412. 13239.5   3
  -1  -5   1 262873. 13903.7   2
   1  -5   0 190460. 11384.1   3
  -1  -5   0 213113. 12437.7   3
   1  -5   0 206369. 12515.4   6
  -1  -5   0 199492. 11429.3   2
  -1  -5  -1 57137.6 6376.12   3
   1  -5   1 55298.0 6373.20   6
   1  -5   1 53139.0 5448.92   3
  -1  -5  -1 68418.6 5798.48   2
  -1  -5  -2 1401.99 637.009   2
  -1  -5  -2 354.916 624.162   1
   1  -5   2 896.154 1341.88   6
   1  -5   2 2112.67 1199.79   3
  -1  -5  -3 97697.3 9197.10   1
   1  -5   3 89948.5 7350.09   4
   1  -5   4 165626. 11176.0   4
  -1  -5  -4 189339. 13823.0   1
   1  -5   5 175181. 11898.5   4
  -1  -5  -5 149701. 13096.2   1
   1  -5   6 86726.8 8741.74   4
  -1  -5  -6 93098.2 10645.2   1
   1  -5   7 25593.3 4960.72   4
  -1  -5  -7 28824.0 6224.25   1
  -1  -5  -8 7687.34 3373.64   1
  -1  -4   8 63847.5 8177.83   4
  -1  -4   7 911.797 682.450   4
  -1  -4   6 45009.8 5544.80   4
   1  -4  -6 36546.4 4909.64   1
  -1  -4   5 160096. 10380.4   4
   1  -4  -5 166846. 10388.0   1
  -1  -4   4 262248. 15623.3   2
   1  -4  -4 262463. 10957.3   6
  -1  -4   4 273272. 13427.1   4
   1  -4  -4 245205. 12527.6   1
  -1  -4   3 295945. 15569.7   2
   1  -4  -3 256022. 12058.8   1
   1  -4  -3 272755. 12111.3   6
  -1  -4   3 282006. 12932.5   4
   1  -4  -3 259626. 14685.3   3
  -1  -4   3 275837. 11956.7   3
  -1  -4   2 53070.7 4382.59   3
   1  -4  -2 60393.1 5703.74   3
  -1  -4   2 61140.1 5789.56   2
   1  -4  -2 55539.3 4761.25   6
   1  -4  -1 833.254 702.970   3
   1  -4  -1-280.739 394.087   6
  -1  -4   1 825.291 730.245   3
  -1  -4   1 1082.29 856.474   2
   1  -4   0 78601.5 6454.43   6
  -1  -4   0 75310.2 6333.53   3
   1  -4   0 77894.9 5967.34   3
  -1  -4   0 71179.3 5810.37   2
  -1  -4  -1 247293. 13688.2   1
  -1  -4  -1 227896. 11842.3   2
   1  -4   1 245981. 11945.6   3
   1  -4   2 339238. 17567.4   6
  -1  -4  -2 349797. 17687.3   1
   1  -4   2 362205. 15914.8   3
   1  -4   3 147488. 11085.1   6
   1  -4   3 161578. 9585.15   4
  -1  -4  -3 155268. 11116.3   1
  -1  -4  -4 49282.8 6295.28   1
   1  -4   4 43738.3 4924.61   4
   1  -4   5 509.477 726.250   4
  -1  -4  -5 1149.74 1415.67   1
   1  -4   6 68653.1 7258.40   4
  -1  -4  -6 64069.7 8332.63   1
   1  -4   7 112424. 10382.7   4
  -1  -4  -7 122256. 12585.0   1
   1  -4   8 91792.4 10028.0   4
  -1  -4  -8 102743. 12098.2   1
  -1  -3   9 13102.1 4007.89   4
  -1  -3   8 82601.8 9065.24   4
   1  -3  -7 190157. 12864.1   1
  -1  -3   7 200581. 13425.4   4
  -1  -3   6 160338. 10665.4   4
   1  -3  -6 126896. 9447.33   1
   1  -3  -5 132686. 8622.77   1
  -1  -3   5 139568. 9130.70   4
   1  -3  -4 7629.64 1196.86   6
  -1  -3   4 6649.12 1906.12   2
   1  -3  -4 5828.59 1515.46   1
  -1  -3   4 8149.10 1777.22   4
   1  -3  -3 44516.6 3638.91   1
  -1  -3   3 48221.3 5136.31   2
  -1  -3   3 47042.1 4078.83   4
  -1  -3   3 52098.9 3611.11   3
   1  -3  -3 42237.3 3366.63   6
   1  -3  -2 356166. 13148.3   1
   1  -3  -2 374856. 14371.6   6
  -1  -3   2 358397. 13588.3   3
   1  -3  -2 338066. 15452.3   3
  -1  -3   2 376300. 14172.6   4
  -1  -3   2 367913. 16251.4   2
   1  -3  -1 439851. 17053.9   3
  -1  -3   1 440803. 16435.0   3
   1  -3  -1 399534. 16713.3   6
  -1  -3   1 445225. 17835.1   2
   1  -3   0 362186. 14383.9   3
  -1  -3   0 341727. 14879.0   2
  -1  -3  -1 92348.4 7119.50   1
   1  -3   1 100506. 6114.83   3
   1  -3   2-108.976 616.833   6
  -1  -3  -2 231.356 642.283   1
   1  -3   3 198266. 12153.2   6
  -1  -3  -3 200627. 12204.5   1
   1  -3   3 213751. 10612.3   4
  -1  -3  -4 261064. 15335.0   1
   1  -3   4 267610. 13305.2   4
   1  -3   5 174995. 10919.1   4
  -1  -3  -5 179706. 12956.5   1
   1  -3   6 80422.4 7651.75   4
  -1  -3  -6 81512.4 9073.15   1
   1  -3   7 19534.2 3958.71   4
  -1  -3  -7 24075.4 5322.65   1
  -1  -3  -8 8659.36 3432.75   1
   1  -3   8 12907.8 3618.51   4
  -1  -2   9 117579. 11965.1   4
   1  -2  -8 76620.0 8338.27   1
  -1  -2   8 85787.1 9095.32   4
   1  -2  -7-180.506 956.457   1
  -1  -2   7 440.741 787.367   4
  -1  -2   6 64249.0 6303.03   4
   1  -2  -6 46427.1 5218.20   1
  -1  -2   5 202493. 11169.1   4
   1  -2  -5 195876. 10535.7   1
  -1  -2   4 334423. 14299.9   4
  -1  -2   4 329287. 16005.8   2
   1  -2  -4 320808. 11483.7   6
   1  -2  -4 318751. 13404.8   1
  -1  -2   3 341252. 15735.9   2
   1  -2  -3 359545. 12593.8   6
  -1  -2   3 360280. 14060.1   4
   1  -2  -3 335903. 12966.6   1
   1  -2  -2 50790.9 3391.34   6
   1  -2  -2 47431.3 2746.53   1
   1  -2  -2 45245.5 3872.12   3
  -1  -2   2 56074.4 3019.08   3
  -1  -2   2 57584.3 4708.01   2
  -1  -2   2 52237.5 3511.07   4
  -1  -2   1 1430.80 624.855   2
   1  -2  -1 1831.83 621.722   6
   1  -2  -1 2089.55 702.231   3
  -1  -2   1 2783.89 720.679   3
  -1  -2   0 89525.7 5973.50   1
   1  -2   0 87704.3 4873.59   3
   1  -2   1 287131. 11313.0   3
  -1  -2  -1 262201. 12421.6   1
  -1  -2  -2 418808. 18271.0   1
   1  -2   2 456081. 16402.5   4
  -1  -2  -3 187001. 10893.1   1
   1  -2   3 181692. 9206.62   4
   1  -2   4 55594.4 5548.76   6
   1  -2   4 50473.5 4682.99   4
  -1  -2  -4 57419.0 6024.20   1
   1  -2   5 287.212 659.619   4
  -1  -2  -5 2186.94 1598.35   1
  -1  -2  -6 86505.5 8994.16   1
   1  -2   6 85790.6 7678.89   4
   1  -2   7 155872. 11824.8   4
  -1  -2  -7 157964. 13598.5   1
  -1  -2  -8 116909. 12438.3   1
   1  -2   8 107659. 10634.5   4
   1  -1  -9 16423.3 4079.53   1
  -1  -1   9 23136.1 5102.63   4
  -1  -1   8 110160. 10461.6   4
   1  -1  -8 106040. 9825.80   1
  -1  -1   7 260669. 15402.3   4
   1  -1  -7 223208. 13843.7   1
  -1  -1   6 181561. 11523.4   4
  -1  -1   5 123122. 8329.08   4
  -1  -1   4 1036.85 623.903   4
  -1  -1   3 98487.8 5644.74   4
  -1  -1   3 94324.7 6334.65   2
   1  -1  -2 390928. 13520.9   6
  -1  -1   2 415639. 13763.8   4
   1  -1  -1 330717. 11029.2   3
  -1  -1   1 313649. 10443.3   3
  -1  -1   1 312713. 12529.6   2
  -1  -1   1 327523. 10609.1   4
  -1  -1   0 295280. 11582.4   1
   1  -1   0 289368. 10272.3   3
   1  -1   1 95860.1 4435.86   4
  -1  -1  -1 94584.6 5681.08   1
   1  -1   2 5606.73 1277.83   6
   1  -1   2 6244.96 1090.07   4
  -1  -1  -2 5311.35 1326.17   1
   1  -1   3 138943. 8107.87   6
  -1  -1  -3 152396. 9182.47   1
   1  -1   3 149652. 7529.60   4
   1  -1   4 268431. 12521.1   4
  -1  -1  -4 273867. 14372.8   1
   1  -1   5 231795. 12394.4   4
  -1  -1  -5 231733. 14002.3   1
  -1  -1  -6 127701. 10698.9   1
   1  -1   6 107609. 8746.65   4
  -1  -1  -7 33218.3 5827.06   1
   1  -1   7 34093.7 5166.12   4
   1  -1   8 7780.80 2697.26   4
  -1  -1  -8 3117.63 2035.01   1
   1  -1   9 53957.5 7926.97   4
   1   0  -9 84858.1 9525.00   1
  -1   0   9 85582.2 10034.2   4
  -1   0   8 76672.5 8765.33   4
  -1   0   7 4242.06 1874.68   5
  -1   0   7 6202.80 2204.92   4
  -1   0   6 30022.1 4427.70   5
  -1   0   6 30590.3 4384.18   4
  -1   0   5 151159. 9743.58   5
  -1   0   5 171198. 10255.9   4
  -1   0   4 390887. 16379.7   4
  -1   0   3 547217. 19068.0   4
  -1   0   3 482204. 18592.4   2
  -1   0   2 163389. 6884.75   4
  -1   0   2 140252. 6799.49   2
  -1   0   1 433.563 203.078   2
  -1   0   1 980.596 299.847   4
  -1   0   0 150976. 6285.28   1
  -1   0  -1 480001. 16954.9   1
   1   0   1 479839. 15178.9   4
   1   0   1 484357. 16265.5   6
   1   0   2 569177. 19961.6   6
   1   0   2 593400. 19810.0   4
  -1   0  -2 640377. 21645.8   1
   1   0   3 189747. 8747.23   4
  -1   0  -3 203382. 10203.9   1
   1   0   4 31138.2 3068.14   6
   1   0   4 29365.5 3397.52   4
  -1   0  -4 31812.1 4041.40   1
  -1   0  -5 6871.88 1920.99   1
   1   0   5 9879.14 2196.10   4
   1   0   6 91416.5 7960.54   4
  -1   0  -6 93006.7 8889.56   1
   1   0   7 140913. 11317.4   4
  -1   0  -7 154767. 12832.9   1
  -1   0  -8 85462.7 10428.1   1
   1   0   8 92602.5 9722.05   4
   1   0   9 51850.0 7776.05   4
  -1   1   9 15457.1 4116.68   4
  -1   1   8 106418. 10426.6   4
  -1   1   8 78843.6 8838.97   5
  -1   1   7 209595. 14097.3   5
  -1   1   7 247410. 15408.8   4
  -1   1   6 167582. 11483.7   4
  -1   1   6 162660. 11137.8   5
  -1   1   5 107190. 8122.82   5
  -1   1   5 119880. 8558.03   4
  -1   1   4 654.186 599.458   4
  -1   1   3 92747.7 6002.62   4
  -1   1   2 359993. 13840.3   4
  -1   1   2 365636. 12245.4   2
   1   1   1 85176.8 4013.99   4
   1   1   1 91208.7 3520.45   5
   1   1   2 6606.60 935.703   6
   1   1   2 9289.21 1176.57   5
   1   1   2 5924.82 1086.65   4
   1   1   3 154791. 6474.33   6
   1   1   3 155156. 7476.09   5
   1   1   3 152086. 7989.36   4
   1   1   4 276236. 12086.9   5
   1   1   4 244048. 12432.7   4
   1   1   5 207264. 11889.4   4
   1   1   6 115576. 9250.34   4
  -1   1  -6 110116. 9803.99   1
  -1   1  -7 27449.7 5168.45   1
   1   1   7 30326.9 5110.85   4
   1   1   8 6705.72 2524.45   4
  -1   1  -8 8511.11 3419.35   1
   1   1   9 52290.6 7753.56   4
  -1   2   9 96772.2 10613.8   5
  -1   2   9 117554. 12211.8   4
  -1   2   8 70567.0 8407.50   5
  -1   2   8 67594.1 8530.84   4
  -1   2   7 2980.08 1691.32   5
  -1   2   7 2471.94 1445.89   4
  -1   2   6 55810.5 6238.53   5
  -1   2   6 47164.8 5965.02   4
  -1   2   5 188144. 11480.6   5
  -1   2   5 194204. 11976.0   4
  -1   2   4 319616. 15313.5   4
  -1   2   4 305799. 14690.9   5
  -1   2   1 2372.48 368.314   1
   1   2   2 380561. 13796.3   5
   1   2   3 176585. 6209.13   6
   1   2   3 178033. 9218.46   4
   1   2   3 164618. 8283.98   5
   1   2   4 49527.8 4434.57   5
   1   2   4 55491.7 5175.82   4
   1   2   5 56.3521 438.074   4
   1   2   5 360.234 427.470   5
   1   2   6 72128.7 6674.67   5
   1   2   6 68746.2 7171.77   4
   1   2   7 150813. 12161.5   4
   1   2   8 94075.6 10138.7   4
  -1   2  -8 117075. 12073.4   1
  -1   3   9 16655.9 4335.88   5
  -1   3   8 52084.6 7300.18   5
  -1   3   7 152308. 12119.1   5
  -1   3   6 137139. 10506.5   5
  -1   3   5 120771. 9214.54   5
  -1   3   4 4777.87 1612.49   5
   1   3   3 181318. 6404.64   6
   1   3   3 164344. 8872.50   5
   1   3   4 237447. 11810.2   5
   1   3   5 170940. 10322.1   5
   1   3   6 74639.2 6988.25   5
  -1   4   9 82830.3 10017.4   5
  -1   4   8 53984.9 7639.49   5
  -1   4   7-83.5851 1259.75   5
  -1   4   6 34061.3 5144.51   5
  -1   4   5 146944. 10744.9   5
   1   4   4 36704.3 4245.08   5
   1   4   5 865.679 456.273   5
  -1   5   8 83264.6 9842.60   5
  -1   5   7 172703. 13782.0   5
  -1   5   6 122499. 10780.8   5
  -1   5   5 75944.3 7853.44   5
   1   5   4 145255. 9796.56   5
   1   5   5 142370. 10139.6   5
  -1   6   8 40492.0 6961.24   5
  -1   6   7 2168.34 727.314   5
  -1   6   6 18911.0 4341.33   5
   1   6   4 20803.6 3723.29   5
  -1   7   7 120250. 12169.9   5
  -1   7   6 85218.6 9873.12   5
  -1   8   6 21657.0 4926.25   5
  -2 -10   3 59478.6 7667.16   4
   2 -10  -2 83501.8 10519.6   3
  -2 -10   1 82796.6 9774.70   3
   2 -10  -1 75803.2 9992.91   3
   2 -10   0 16865.8 4577.86   3
  -2 -10   0 16107.3 4363.20   3
  -2 -10  -1 1187.48 1303.40   3
  -2  -9   5 82018.4 9196.88   4
   2  -9  -5 79267.1 10311.6   3
  -2  -9   4 79843.7 8856.66   4
   2  -9  -4 97293.0 11165.9   3
  -2  -9   3 27782.8 4940.65   4
   2  -9  -3 41849.2 7118.64   3
  -2  -9   3 29582.4 6296.48   2
  -2  -9   2-2844.47 1855.96   2
  -2  -9   2-541.218 1259.20   4
   2  -9  -2 120.667 1028.70   3
  -2  -9   2 896.443 694.952   3
   2  -9  -1 32915.7 6116.47   3
  -2  -9   1 34886.5 5934.85   3
  -2  -9   0 118098. 11795.9   3
   2  -9   0 111999. 11526.3   3
  -2  -9  -1 143803. 13758.5   3
   2  -9   1 121599. 12130.3   3
  -2  -9  -2 84781.9 10813.3   3
   2  -9   2 59529.2 8378.22   3
  -2  -9  -3 11767.3 4424.04   3
   2  -9   3 12565.0 3679.40   4
   2  -8  -6 39121.6 6959.83   3
  -2  -8   6 39789.7 6335.51   4
   2  -8  -5 557.026 1549.41   3
  -2  -8   5 1562.81 1429.84   4
   2  -8  -4 47331.3 7235.30   3
  -2  -8   4 36998.2 6983.82   2
  -2  -8   4 33135.8 5229.54   4
  -2  -8   3 84833.3 8304.28   4
  -2  -8   3 95978.0 10806.2   2
   2  -8  -3 92806.5 10083.4   3
   2  -8  -2 142462. 12581.9   6
  -2  -8   2 135470. 12437.1   2
   2  -8  -2 139464. 12227.2   3
  -2  -8   2 123847. 10508.8   3
  -2  -8   1 123840. 10814.8   3
   2  -8  -1 103503. 11199.0   6
  -2  -8   1 123148. 11309.7   2
   2  -8  -1 110498. 10676.4   3
   2  -8   0 25889.8 5523.77   6
  -2  -8   0 22176.1 4437.58   2
  -2  -8   0 22272.7 4759.89   3
   2  -8   0 18249.3 4021.01   3
   2  -8   1 219.778 799.417   6
   2  -8   1 3182.45 1933.13   3
  -2  -8  -1 2360.99 1313.04   3
  -2  -8  -2 44549.0 7624.98   3
   2  -8   2 41210.8 6443.04   3
  -2  -8  -3 82693.0 11079.1   3
   2  -8   3 65421.7 8102.11   4
  -2  -8  -4 138820. 15073.4   3
   2  -8   4 113478. 11221.6   4
  -2  -8  -5 64795.8 10234.3   1
  -2  -7   7 26843.1 5222.07   4
  -2  -7   6 84030.5 8913.63   4
   2  -7  -6 112345. 11456.1   3
  -2  -7   5 144234. 14073.8   2
   2  -7  -5 144869. 12692.5   3
  -2  -7   5 129658. 10714.2   4
   2  -7  -4 119281. 11053.4   3
  -2  -7   4 116481. 12117.2   2
  -2  -7   4 130115. 10091.8   4
   2  -7  -3 49021.4 6354.95   6
   2  -7  -3 42698.5 6152.67   3
  -2  -7   3 36417.4 4884.35   4
  -2  -7   3 49486.5 7168.24   2
  -2  -7   3 36752.0 4747.31   3
   2  -7  -2 3837.24 1943.81   6
   2  -7  -2 1310.23 1247.69   3
  -2  -7   2 1321.29 1454.08   2
  -2  -7   2 121.104 676.560   3
   2  -7  -1 45910.1 6230.65   3
   2  -7  -1 53207.2 7199.18   6
  -2  -7   1 53983.3 6465.34   3
  -2  -7   1 53908.9 7042.43   2
  -2  -7   0 144063. 11898.5   3
   2  -7   0 147741. 12747.9   6
   2  -7   0 123684. 10554.7   3
  -2  -7   0 155110. 12073.9   2
   2  -7   1 173584. 14341.8   6
  -2  -7  -1 170571. 13758.9   3
  -2  -7  -1 144645. 11521.7   2
   2  -7   1 127634. 10846.4   3
  -2  -7  -2 98617.5 10941.2   3
   2  -7   2 92749.1 9214.82   3
   2  -7   2 104134. 11428.8   6
  -2  -7  -3 28739.5 6027.70   1
   2  -7   3 19979.0 4122.50   4
  -2  -7  -4 1739.01 1598.53   1
   2  -7   4 2594.56 1774.22   4
   2  -7   5 50423.9 7098.31   4
  -2  -7  -5 58196.1 9374.52   1
  -2  -6   8 75690.0 9183.41   4
  -2  -6   7 93651.8 9567.35   4
   2  -6  -6 79769.2 9053.33   3
  -2  -6   6 61747.1 7223.39   4
  -2  -6   5 1448.82 1669.46   2
   2  -6  -5 593.122 1562.26   3
  -2  -6   5 601.909 582.256   4
  -2  -6   4 25725.0 5046.16   2
   2  -6  -4 30214.8 5002.92   3
  -2  -6   4 35659.1 4720.73   4
  -2  -6   3 141991. 9050.11   3
   2  -6  -3 139784. 10830.3   3
  -2  -6   3 151257. 12378.7   2
  -2  -6   3 146808. 9557.81   4
   2  -6  -3 139189. 10491.3   6
   2  -6  -2 232322. 14523.8   3
  -2  -6   2 265178. 13679.4   3
   2  -6  -2 245726. 15062.0   6
  -2  -6   2 236222. 15626.8   2
   2  -6  -1 237037. 15334.2   6
   2  -6  -1 240602. 14400.1   3
  -2  -6   1 250224. 14384.4   3
  -2  -6   1 252127. 15603.1   2
   2  -6   0 41945.7 5353.81   3
  -2  -6   0 36954.0 5347.48   2
   2  -6   0 41021.9 5975.30   6
  -2  -6   0 34252.3 5201.80   3
   2  -6   1 5169.61 2163.77   6
  -2  -6  -1 2380.39 1310.28   2
   2  -6   1 2639.42 1344.96   3
  -2  -6  -1 5879.14 2477.19   3
  -2  -6  -2 99390.7 10516.0   1
  -2  -6  -2 79408.9 8058.57   2
   2  -6   2 86019.4 9738.90   6
   2  -6   3 142539. 13193.8   6
  -2  -6  -3 151517. 13676.3   1
   2  -6   3 138085. 10533.6   4
  -2  -6  -3 143173. 11219.6   2
  -2  -6  -4 176687. 15674.0   1
   2  -6   4 178272. 12664.6   4
  -2  -6  -5 64587.4 9474.59   1
   2  -6   5 47927.2 6582.37   4
  -2  -6  -6 10403.5 4013.28   1
   2  -6   6 5063.51 2083.55   4
  -2  -5   8 2521.87 1705.49   4
  -2  -5   7 34534.1 5553.17   4
  -2  -5   6 112978. 9477.29   4
   2  -5  -6 110369. 10299.4   3
  -2  -5   5 202202. 15263.0   2
  -2  -5   5 183107. 11763.5   4
   2  -5  -5 198203. 13475.7   3
   2  -5  -4 167973. 11714.3   3
   2  -5  -4 162069. 10290.9   6
  -2  -5   4 177960. 8986.51   3
  -2  -5   4 159108. 12756.4   2
  -2  -5   4 167031. 10346.9   4
   2  -5  -3 47016.3 5530.91   3
  -2  -5   3 49905.3 6408.02   2
  -2  -5   3 58761.0 5257.54   4
  -2  -5   3 63185.2 4975.08   3
   2  -5  -3 49722.3 5515.89   6
   2  -5  -2 8.05456 836.490   6
  -2  -5   2 138.079 557.697   2
  -2  -5   2 896.055 652.447   4
  -2  -5   2 729.521 510.014   3
   2  -5  -2 948.989 1085.58   3
   2  -5  -1 67140.4 6982.93   6
   2  -5  -1 64107.7 6097.14   3
  -2  -5   1 68531.1 6262.17   3
  -2  -5   1 66456.1 7010.47   2
   2  -5   0 215760. 13613.6   6
  -2  -5   0 180954. 12168.9   3
  -2  -5   0 188735. 12483.9   2
   2  -5   0 200930. 11768.3   3
   2  -5   1 242729. 15254.4   6
  -2  -5  -1 211179. 14873.4   1
   2  -5   1 222805. 12817.4   3
  -2  -5  -1 208521. 13376.4   2
   2  -5   2 144235. 11900.6   6
  -2  -5  -2 158037. 12832.2   1
   2  -5   3 38098.4 6153.12   6
  -2  -5  -3 45575.0 6812.47   1
   2  -5   3 33415.6 4546.39   4
   2  -5   4 2404.07 1330.05   4
  -2  -5  -4 1400.11 1543.96   1
   2  -5   4 1906.56 1568.13   6
   2  -5   5 63147.9 7079.62   4
  -2  -5  -5 70194.0 9433.98   1
   2  -5   6 86277.4 8896.07   4
  -2  -5  -6 113700. 12811.4   1
   2  -5   7 99383.9 10103.8   4
  -2  -5  -7 88445.1 11907.1   1
  -2  -4   9 88594.7 10272.3   4
  -2  -4   8 121406. 11354.0   4
  -2  -4   7 155792. 11902.3   4
   2  -4  -6 83359.3 8388.00   3
  -2  -4   6 87786.4 7893.09   4
  -2  -4   5 1116.34 1175.72   2
   2  -4  -5 742.425 685.984   3
  -2  -4   5 874.996 709.192   4
   2  -4  -4 78415.4 6094.49   6
   2  -4  -4 71418.9 6743.42   3
  -2  -4   4 80893.6 8218.68   2
  -2  -4   4 78531.1 6214.44   4
   2  -4  -3 189531. 10896.4   3
  -2  -4   3 191305. 8756.41   3
  -2  -4   3 176955. 9612.24   4
  -2  -4   3 188853. 12548.2   2
   2  -4  -3 184726. 10470.5   6
  -2  -4   2 267667. 11776.6   3
   2  -4  -2 267251. 13555.4   6
  -2  -4   2 254299. 11391.7   4
  -2  -4   2 259990. 14967.6   2
   2  -4  -2 256746. 12984.9   3
   2  -4  -1 258823. 12974.9   3
  -2  -4   1 254227. 14558.9   2
   2  -4  -1 274932. 14312.1   6
  -2  -4   1 279064. 13387.9   3
   2  -4   0 32345.6 4387.29   6
  -2  -4   0 38049.8 5245.64   1
   2  -4   0 34368.6 3988.13   3
  -2  -4   0 34635.7 4760.79   2
   2  -4   1 1676.65 1210.64   6
  -2  -4  -1-201.488 717.281   1
   2  -4   1-513.299 765.748   3
   2  -4   2 87615.9 8416.89   6
  -2  -4  -2 82131.3 8394.75   1
   2  -4   3 174463. 12809.3   6
   2  -4   3 152609. 9784.91   4
  -2  -4  -3 186978. 13629.1   1
   2  -4   4 212782. 15163.6   6
   2  -4   4 215825. 12600.3   4
  -2  -4  -4 228451. 16288.5   1
   2  -4   5 92526.5 8167.81   4
  -2  -4  -5 94144.8 10551.1   1
  -2  -4  -6 19205.0 5092.76   1
   2  -4   6 15185.5 3313.67   4
   2  -4   7 8658.77 2858.82   4
  -2  -4  -7 13470.7 4480.03   1
  -2  -3   9 49194.6 7483.55   4
  -2  -3   8 5674.01 2388.70   4
  -2  -3   7 27556.7 4635.11   4
   2  -3  -6 115263. 9362.19   3
  -2  -3   6 127171. 9417.57   4
   2  -3  -5 224541. 13123.6   3
  -2  -3   5 251118. 15537.6   2
  -2  -3   5 253329. 13070.7   4
   2  -3  -5 255107. 11428.9   6
   2  -3  -4 254177. 12943.8   3
   2  -3  -4 275747. 12162.3   6
  -2  -3   4 259880. 12335.5   4
  -2  -3   4 250004. 14899.1   2
   2  -3  -4 251198. 9955.73   1
  -2  -3   3 135980. 7551.78   4
   2  -3  -3 129192. 7986.28   3
   2  -3  -3 151276. 8420.53   6
  -2  -3   3 144947. 10297.3   2
  -2  -3   3 146664. 6199.85   3
   2  -3  -2-463.610 709.602   6
  -2  -3   2 1452.84 913.647   2
   2  -3  -2 854.813 636.328   3
  -2  -3   2 350.786 306.456   3
  -2  -3   2 560.639 368.693   4
   2  -3  -1 104331. 6543.17   3
  -2  -3   1 106868. 8124.91   2
   2  -3  -1 109588. 7510.71   6
   2  -3   0 376131. 15634.8   3
  -2  -3   0 387830. 18605.5   1
   2  -3   1 418303. 18859.9   6
  -2  -3  -1 394126. 19513.9   1
   2  -3   2 185589. 9681.39   4
  -2  -3  -2 193887. 12752.4   1
   2  -3   2 193377. 12107.7   6
   2  -3   3 29098.8 4593.59   6
   2  -3   3 26741.9 3374.96   4
  -2  -3  -3 22417.4 4178.44   1
  -2  -3  -4 8725.53 2977.88   1
   2  -3   4 9351.65 2607.26   6
   2  -3   4 5736.26 1670.54   4
   2  -3   5 97946.8 9513.37   6
   2  -3   5 103364. 8230.81   4
  -2  -3  -5 110194. 10932.0   1
  -2  -3  -6 130700. 13029.5   1
   2  -3   6 132738. 10426.5   4
  -2  -3  -7 100614. 11987.8   1
   2  -3   7 85503.9 8851.63   4
   2  -3   8 35739.4 6047.09   4
  -2  -2   9 96918.8 10833.3   4
  -2  -2   8 136324. 11880.4   4
  -2  -2   7 167145. 12029.1   4
  -2  -2   6 113300. 8815.31   4
   2  -2  -6 112937. 7451.24   1
  -2  -2   5 3303.14 1722.99   2
   2  -2  -5 2898.87 1001.93   6
   2  -2  -5 3513.90 1259.53   3
   2  -2  -5 2983.34 910.199   1
  -2  -2   5 4397.29 1529.63   4
   2  -2  -4 96875.4 6448.62   3
   2  -2  -4 100123. 6264.72   6
  -2  -2   4 110297. 6857.05   4
  -2  -2   4 101747. 8078.02   2
   2  -2  -4 98770.2 5141.33   1
   2  -2  -3 195051. 6970.91   1
  -2  -2   3 212338. 9394.23   4
  -2  -2   3 221746. 12129.3   2
   2  -2  -3 200313. 9171.08   3
   2  -2  -3 209948. 9998.22   6
   2  -2  -2 302433. 11682.0   3
   2  -2  -2 283803. 12783.9   6
  -2  -2   2 285213. 10926.1   4
  -2  -2   2 296332. 14466.7   2
  -2  -2   2 290875. 10196.4   3
  -2  -2   1 338097. 15599.3   2
   2  -2  -1 341721. 12921.4   3
  -2  -2   1 323500. 11106.4   4
  -2  -2   0 45362.6 4791.82   1
   2  -2   1 1392.37 853.766   6
  -2  -2  -1 2771.79 1271.34   1
   2  -2   2 90984.2 7197.54   6
   2  -2   2 89262.5 5548.95   4
  -2  -2  -2 99959.9 8136.99   1
   2  -2   3 195109. 11997.2   6
  -2  -2  -3 202084. 13133.6   1
   2  -2   3 202730. 10003.1   4
   2  -2   4 280443. 15500.6   6
  -2  -2  -4 267434. 16488.6   1
   2  -2   4 268025. 13129.2   4
  -2  -2  -5 122636. 11108.8   1
   2  -2   5 99767.2 8834.27   6
   2  -2   5 98162.5 7816.29   4
  -2  -2  -6 22307.2 4968.65   1
   2  -2   6 23166.9 3992.60   4
  -2  -2  -7 6558.26 3016.58   1
   2  -2   7 9394.83 2940.08   4
  -2  -1   9 57763.8 8241.03   4
   2  -1  -8 1433.01 1030.56   1
  -2  -1   8 5485.04 2280.93   4
  -2  -1   7 56473.5 6711.83   4
  -2  -1   6 189750. 12166.0   5
  -2  -1   6 180988. 11703.3   4
   2  -1  -6 184671. 9497.91   6
  -2  -1   5 303827. 15027.4   5
  -2  -1   5 300955. 14652.2   4
  -2  -1   5 286466. 15307.6   2
   2  -1  -4 210912. 9583.28   3
  -2  -1   4 254354. 11906.7   5
  -2  -1   4 235404. 11304.0   4
  -2  -1   4 221674. 12083.5   2
   2  -1  -3 90368.2 4405.22   3
  -2  -1   3 96889.3 5613.99   4
  -2  -1   3 83487.6 6540.44   2
   2  -1  -3 84092.8 5712.81   6
   2  -1  -2 4454.83 1163.57   6
  -2  -1   2 2448.12 1020.66   2
   2  -1  -2 3589.14 693.380   3
  -2  -1   2 6350.91 1163.95   5
  -2  -1   2 3751.99 772.074   4
  -2  -1   1 112449. 6755.37   1
  -2  -1   1 94211.8 3807.81   4
  -2  -1   0 319419. 14267.7   1
   2  -1   1 323581. 11568.2   4
  -2  -1  -1 321138. 14942.7   1
  -2  -1  -2 192666. 11515.6   1
   2  -1   2 206159. 8697.00   4
   2  -1   3 60844.0 5518.18   6
  -2  -1  -3 53462.1 5867.70   1
   2  -1   3 52480.8 4196.19   4
   2  -1   4 1068.60 839.524   6
  -2  -1  -4-14.4012 1125.03   1
   2  -1   4 850.040 858.694   4
  -2  -1  -5 104866. 9852.34   1
   2  -1   5 82325.1 6950.38   4
  -2  -1  -6 149601. 13121.4   1
   2  -1   6 152720. 10824.6   4
  -2  -1  -7 109454. 12042.9   1
   2  -1   7 96607.5 9276.30   4
  -2  -1  -8 69855.5 10206.8   1
  -2   0   9 69833.8 9166.04   4
  -2   0   8 87069.0 9426.53   5
  -2   0   8 124196. 11175.1   4
  -2   0   7 156976. 11886.6   5
  -2   0   7 177317. 12663.8   4
  -2   0   6 146711. 10565.7   5
  -2   0   6 150303. 10652.7   4
  -2   0   5 1297.88 863.239   2
  -2   0   5 1928.09 1046.06   5
  -2   0   5 173.896 587.197   4
  -2   0   4 76270.4 5971.68   5
  -2   0   4 66784.0 5553.62   4
  -2   0   4 73033.3 5697.19   2
  -2   0   3 231071. 10180.3   4
  -2   0   3 191998. 10162.4   2
  -2   0   2 438123. 15513.2   5
  -2   0   2 408258. 16709.0   2
  -2   0   2 406775. 15024.1   4
  -2   0   1 525776. 17152.0   5
  -2   0   1 493573. 18372.2   1
  -2   0   0 68207.6 4757.50   1
   2   0   0 62468.3 2340.59   4
   2   0   1 10618.2 1028.98   4
  -2   0  -1 11235.2 2035.77   1
  -2   0  -2 176241. 9982.18   1
   2   0   2 159070. 7067.53   4
  -2   0  -3 275410. 14307.7   1
   2   0   3 253464. 11190.7   4
  -2   0  -4 315985. 16713.4   1
   2   0   4 271755. 13069.9   4
  -2   0  -5 96866.3 9227.93   1
   2   0   5 77264.9 6746.50   4
  -2   0  -6 16246.4 4037.78   1
   2   0   6 11371.1 2714.67   4
  -2   0  -7 16763.3 4656.33   1
   2   0   7 7665.28 2569.50   4
  -2   0  -8 46196.1 8213.89   1
  -2   1   9 49136.6 7512.17   5
  -2   1   9 63548.0 8797.25   4
  -2   1   8 1794.55 1472.69   5
  -2   1   8 7653.50 2842.22   4
  -2   1   7 44208.6 6036.44   5
  -2   1   7 50096.4 6622.99   4
  -2   1   6 178047. 12139.5   5
  -2   1   6 197619. 12762.8   4
  -2   1   5 317639. 15955.2   5
  -2   1   5 311985. 15996.1   4
  -2   1   4 248620. 12703.4   5
  -2   1   4 249012. 12722.5   4
  -2   1   4 252746. 11292.4   2
  -2   1   3 83557.7 5846.52   4
  -2   1   3 80959.5 5296.21   2
  -2   1   2 4350.95 1160.17   5
  -2   1   2 4091.38 1054.93   2
  -2   1   1 109108. 5147.77   1
  -2   1   0 298346. 11833.4   1
   2   1   1 313900. 13400.7   6
  -2   1  -1 339136. 13776.8   1
   2   1   2 183992. 9044.92   6
   2   1   2 182876. 8020.30   4
  -2   1  -2 199396. 10345.3   1
   2   1   3 55775.9 4327.74   4
  -2   1  -3 54080.1 5491.07   1
   2   1   3 57960.8 4442.97   6
  -2   1  -4 1041.27 680.183   1
   2   1   4 1013.63 678.626   4
   2   1   5 83085.3 7122.23   4
  -2   1  -5 101171. 9258.92   1
   2   1   6 141293. 10539.8   4
  -2   1  -6 153433. 12829.0   1
  -2   1  -7 119652. 12461.6   1
  -2   2   9 73519.5 9312.95   5
  -2   2   8 125507. 11550.7   5
  -2   2   7 164458. 12524.5   5
  -2   2   7 158192. 12655.2   4
  -2   2   6 102125. 8954.61   5
  -2   2   6 106683. 9300.25   4
  -2   2   5 1945.18 1084.05   5
  -2   2   4 89612.4 7396.21   5
  -2   2   4 121925. 5942.65   2
  -2   2   3 218420. 8914.87   2
  -2   2   1 348669. 11303.6   1
  -2   2   0 40865.3 2971.15   1
  -2   2  -1 1096.28 553.225   1
   2   2   2 82566.4 3592.20   5
   2   2   2 78363.0 5196.64   6
   2   2   3 195184. 8969.00   6
  -2   2  -4 274318. 15286.2   1
   2   2   5 95900.5 7883.65   4
  -2   2  -5 121204. 10201.9   1
  -2   2  -6 24710.2 4989.78   1
   2   2   6 16034.9 3486.60   4
  -2   2  -7 6179.55 2726.92   1
  -2   3   9 40484.0 6915.32   5
  -2   3   8 2648.33 1198.10   5
  -2   3   7 22861.9 4375.13   5
  -2   3   6 113000. 9730.56   5
  -2   3   5 237819. 14186.1   5
  -2   3   4 237845. 13436.1   5
  -2   3   3 135432. 4961.55   2
  -2   3   1 90217.2 3608.70   1
   2   3   2 161246. 6918.83   5
  -2   3  -6 119491. 11455.6   1
  -2   3  -7 75066.4 9692.67   1
  -2   4   9 69583.6 9515.68   5
  -2   4   8 109531. 11341.6   5
  -2   4   7 128981. 11579.0   5
  -2   4   6 86289.9 8767.86   5
  -2   4   5 379.547 897.229   5
  -2   4  -7 13096.7 4081.83   1
  -2   5   8 3709.30 2280.61   5
  -2   5   7 36901.0 6237.20   5
  -2   5   6 129979. 11474.9   5
  -2   5   5 199647. 13903.0   5
  -2   6   8 86137.8 10558.3   5
  -2   6   7 86186.4 10159.6   5
  -2   6   6 79250.8 9192.52   5
  -2   7   7 28278.1 5980.69   5
  -2   7   6 87388.1 10174.8   5
  -2   8   6 41798.2 7331.32   5
   3  -9  -4 60729.1 8610.77   3
  -3  -9   4 61132.8 9722.95   2
   3  -9  -3 120694. 12330.7   3
  -3  -9   3 143931. 14586.7   2
   3  -9  -2 84050.1 9997.41   3
   3  -9  -2 83213.6 10740.6   6
  -3  -9   2 78572.1 10276.6   2
  -3  -9   1 23837.2 5369.12   2
   3  -9  -1 26093.5 6213.05   6
   3  -9  -1 30874.4 5913.07   3
   3  -9   0 655.648 1598.41   6
   3  -9   0 2358.40 1549.78   3
  -3  -9   0 4028.26 2146.03   3
   3  -9   1 36355.4 7871.46   6
  -3  -9  -1 40131.4 7250.66   3
   3  -8  -5 89687.6 10063.7   3
  -3  -8   5 101616. 12688.8   2
  -3  -8   4 25314.2 6147.17   2
   3  -8  -4 25605.8 5065.60   3
  -3  -8   3 4577.79 2431.33   2
   3  -8  -3 4080.52 2227.42   6
   3  -8  -3 3469.29 1866.09   3
  -3  -8   2 35340.8 6623.95   2
   3  -8  -2 40385.8 7021.71   6
   3  -8  -2 39861.8 6389.57   3
   3  -8  -1 104728. 11808.6   6
  -3  -8   1 83302.5 10310.4   2
   3  -8  -1 92737.6 9877.52   3
   3  -8   0 115714. 12964.0   6
  -3  -8   0 126063. 11900.3   3
  -3  -8   0 130185. 12557.1   2
   3  -8   0 108530. 10957.0   3
   3  -8   1 97448.1 12315.6   6
  -3  -8  -1 92273.8 10961.5   3
   3  -8   2 10690.2 4007.40   6
  -3  -8  -2 9230.62 3523.22   3
   3  -8   2 6551.61 2517.85   4
  -3  -8  -3 3216.06 1687.35   3
   3  -8   3 1058.93 1078.34   4
  -3  -7   7 25538.9 5031.87   4
  -3  -7   6 783.213 1215.03   2
  -3  -7   6 2279.86 1388.14   4
  -3  -7   5 28250.7 6193.53   2
   3  -7  -5 30922.9 5376.70   3
  -3  -7   5 32562.4 4853.62   4
   3  -7  -4 79721.2 8709.94   3
  -3  -7   4 84720.7 10556.5   2
   3  -7  -3 169006. 13094.0   3
   3  -7  -3 172382. 13921.7   6
  -3  -7   3 191357. 15713.5   2
   3  -7  -2 79369.4 8502.74   3
   3  -7  -2 96201.8 10413.0   6
  -3  -7   2 86637.9 10246.4   2
   3  -7  -1 34071.0 6134.36   6
  -3  -7   1 19939.2 4749.87   2
   3  -7  -1 20275.6 4172.35   3
  -3  -7   1 25667.4 4546.47   3
   3  -7   0 3803.63 2210.30   6
  -3  -7   0 5517.89 2381.49   2
   3  -7   0 2505.56 1236.64   3
  -3  -7   0 1259.10 1255.72   3
   3  -7   1 28479.3 6085.96   6
  -3  -7  -1 31244.7 5734.21   2
  -3  -7  -1 26649.4 5501.43   3
   3  -7   2 148157. 14788.7   6
  -3  -7  -2 151696. 13049.8   2
   3  -7   2 123129. 10769.7   4
   3  -7   3 109174. 12964.0   6
  -3  -7  -3 106596. 13020.5   1
   3  -7   3 84276.0 8937.23   4
  -3  -7  -4 59487.2 9982.35   1
   3  -7   4 46615.3 6706.95   4
  -3  -6   8 19793.7 4519.17   4
  -3  -6   7 51936.4 6932.77   4
  -3  -6   6 107966. 12572.6   2
  -3  -6   6 106201. 9427.45   4
   3  -6  -5 131695. 10727.0   3
  -3  -6   5 134640. 13383.0   2
  -3  -6   5 129271. 9834.83   4
   3  -6  -4 61463.2 7226.71   6
   3  -6  -4 66471.3 7268.87   3
  -3  -6   4 58829.8 5949.12   4
  -3  -6   4 65536.7 8767.61   2
  -3  -6   3 264.047 405.387   4
   3  -6  -3-141.395 864.587   6
   3  -6  -3-871.211 896.408   3
   3  -6  -2 36303.4 5137.76   3
   3  -6  -2 46206.1 6548.48   6
  -3  -6   2 38764.3 6401.14   2
   3  -6  -1 166504. 13340.0   6
  -3  -6   1 165147. 11613.4   3
   3  -6  -1 151267. 11129.4   3
  -3  -6   1 145056. 12675.4   2
   3  -6   0 214705. 16068.3   6
   3  -6   0 203157. 13613.3   3
  -3  -6   0 259784. 16111.3   3
  -3  -6   0 210570. 15493.4   2
   3  -6   1 159230. 13945.2   6
  -3  -6  -1 151388. 13051.2   2
  -3  -6  -2 14492.7 4318.28   1
   3  -6   2 12026.8 2897.70   4
   3  -6   2 12615.8 4111.11   6
  -3  -6  -2 5911.08 2344.24   2
  -3  -6  -3 7042.47 3235.73   1
   3  -6   3 9228.05 3590.84   6
   3  -6   3 7922.65 2451.03   4
  -3  -6  -3 6815.63 2570.08   2
   3  -6   4 49525.6 8505.00   6
  -3  -6  -4 53719.9 9127.72   1
   3  -6   4 48419.4 6357.17   4
  -3  -6  -5 107210. 13380.9   1
   3  -6   5 75574.6 8389.47   4
  -3  -5   8 122232. 11543.4   4
  -3  -5   7 33385.0 5325.31   4
  -3  -5   6 1831.63 1740.28   2
  -3  -5   6 201.480 572.902   4
   3  -5  -5 53752.7 6035.38   3
  -3  -5   5 52696.6 5694.82   4
  -3  -5   5 57040.6 8022.67   2
   3  -5  -4 91023.9 8033.21   3
   3  -5  -4 120680. 9565.55   6
  -3  -5   4 112560. 7937.43   4
  -3  -5   4 93586.3 10203.5   2
   3  -5  -3 270376. 15491.0   6
   3  -5  -3 242363. 13739.1   3
  -3  -5   3 241940. 12042.1   4
  -3  -5   3 235977. 16594.6   2
   3  -5  -2 140647. 10986.7   6
  -3  -5   2 141136. 8816.46   3
  -3  -5   2 113190. 10788.6   2
   3  -5  -2 125718. 9167.93   3
   3  -5  -1 32320.2 5209.05   6
  -3  -5   1 34566.9 4758.81   3
  -3  -5   1 27044.6 4990.59   2
   3  -5  -1 39685.5 4849.18   3
   3  -5   0 3910.04 1836.95   6
  -3  -5   0 4812.40 2087.33   2
   3  -5   0 4549.19 1824.71   3
  -3  -5  -1 46751.3 7221.74   1
   3  -5   1 38945.8 6258.76   6
  -3  -5  -1 35069.1 5799.16   2
   3  -5   2 191341. 15163.1   6
  -3  -5  -2 202935. 16175.4   1
   3  -5   2 168606. 11116.4   4
   3  -5   3 140888. 13264.5   6
  -3  -5  -3 146393. 14005.0   1
   3  -5   3 130391. 9815.35   4
   3  -5   4 76845.3 9952.85   6
  -3  -5  -4 80929.9 10782.2   1
   3  -5   4 74745.6 7450.90   4
   3  -5   5 6508.75 3370.06   6
  -3  -5  -5 12455.8 4325.74   1
   3  -5   5 9833.90 2718.27   4
  -3  -4   8 31764.1 5624.75   4
  -3  -4   7 83563.2 10363.6   2
  -3  -4   7 93888.0 9102.42   4
  -3  -4   6 173132. 11717.5   4
  -3  -4   6 174084. 14493.5   2
   3  -4  -5 151983. 9864.50   3
  -3  -4   5 163809. 10390.2   4
  -3  -4   5 165025. 13373.7   2
   3  -4  -5 173613. 10912.9   6
   3  -4  -4 60392.6 5565.82   3
  -3  -4   4 50683.1 4853.02   4
  -3  -4   4 60955.6 7586.27   2
   3  -4  -4 62709.1 6300.75   6
   3  -4  -3 5396.39 1799.29   6
  -3  -4   3 5685.86 2269.04   2
   3  -4  -3 4948.77 1541.23   3
  -3  -4   3 9858.08 1802.86   4
   3  -4  -2 68417.3 6956.56   6
  -3  -4   2 75814.3 5615.51   3
  -3  -4   2 67586.2 4546.49   4
  -3  -4   2 69105.9 7667.94   2
   3  -4  -2 62084.0 5595.93   3
   3  -4  -1 179360. 12254.7   6
  -3  -4   1 172221. 12833.6   2
   3  -4  -1 169064. 10122.4   3
   3  -4   0 245697. 15386.1   6
  -3  -4   0 239091. 15631.0   2
  -3  -4   0 286946. 17449.1   1
   3  -4   1 168666. 12863.5   6
  -3  -4  -1 190953. 14326.9   1
   3  -4   2 25422.1 4896.88   6
  -3  -4  -2 21909.3 4752.13   1
   3  -4   2 16889.4 2836.27   4
   3  -4   3-134.131 627.013   6
   3  -4   3 898.381 793.961   4
   3  -4   4 48416.3 7399.28   6
  -3  -4  -4 53809.0 8369.09   1
   3  -4   4 48645.4 5509.42   4
   3  -4   5 116659. 12151.2   6
  -3  -4  -5 136483. 14290.0   1
  -3  -4  -6 97881.4 12654.7   1
  -3  -3   9 80318.5 9817.05   4
  -3  -3   8 134480. 11943.9   4
  -3  -3   7 38584.1 6504.63   2
  -3  -3   7 40509.8 5739.50   4
  -3  -3   6 972.861 795.783   2
  -3  -3   6 5577.74 1911.26   4
  -3  -3   5 40295.3 5962.27   2
   3  -3  -5 38863.0 4647.46   6
  -3  -3   5 40438.8 4615.05   4
   3  -3  -4 120891. 7371.16   3
  -3  -3   4 130991. 7974.17   4
  -3  -3   4 134848. 10964.3   2
   3  -3  -4 128182. 9014.53   6
  -3  -3   3 355343. 14342.8   4
   3  -3  -3 350771. 14925.8   3
   3  -3  -3 355767. 17246.4   6
  -3  -3   2 229896. 10181.3   3
  -3  -3   2 207439. 8823.58   4
  -3  -3   2 242583. 14760.0   2
   3  -3  -2 217789. 12816.4   6
   3  -3  -2 222572. 10747.0   3
  -3  -3   1 74008.8 7645.83   2
   3  -3  -1 80371.1 7345.06   6
  -3  -3   0 7211.92 2566.30   1
   3  -3   0 7314.50 2316.85   6
   3  -3   1 87240.6 8178.46   6
  -3  -3  -1 76853.0 8298.67   1
   3  -3   2 292214. 17252.1   6
   3  -3   2 283627. 13291.9   4
  -3  -3  -2 324786. 18984.7   1
   3  -3   3 190788. 13986.0   6
   3  -3   3 184584. 10358.0   4
  -3  -3  -3 197674. 15023.9   1
   3  -3   4 79431.3 8997.22   6
   3  -3   4 75510.7 6545.15   4
  -3  -3  -5 2184.82 2039.84   1
   3  -3   5 6908.75 2604.60   6
  -3  -3  -6 1154.59 1679.83   1
  -3  -2   9 1617.47 1436.74   4
  -3  -2   8 45511.2 6720.60   4
  -3  -2   7 120824. 10245.5   4
  -3  -2   7 114946. 10895.1   2
  -3  -2   6 207114. 12785.8   4
  -3  -2   6 186235. 13713.4   2
   3  -2  -6 213199. 11766.4   6
   3  -2  -5 219815. 11997.0   6
  -3  -2   5 204197. 11662.1   4
  -3  -2   5 197255. 13426.2   2
   3  -2  -4 78317.9 4594.67   3
  -3  -2   4 72730.9 5604.89   4
  -3  -2   4 70658.1 7350.73   2
   3  -2  -4 64784.8 6005.27   6
   3  -2  -3 8944.69 2193.70   6
  -3  -2   3 10129.9 2538.68   2
   3  -2  -3 10050.3 1517.19   3
  -3  -2   3 10835.0 1751.69   4
  -3  -2   2 74105.0 4065.90   4
   3  -2  -2 77068.6 6589.81   6
  -3  -2   2 92165.5 8056.87   2
  -3  -2   1 230573. 13190.6   1
   3  -2  -1 205306. 12198.6   6
  -3  -2   0 293347. 16348.9   1
   3  -2   0 314279. 15888.3   6
  -3  -2  -1 177567. 12583.1   1
   3  -2   1 189440. 8655.72   4
   3  -2   1 198848. 12292.5   6
   3  -2   2 22887.1 3980.34   6
   3  -2   2 18828.5 2379.38   4
  -3  -2  -2 25605.0 4577.72   1
   3  -2   3 1626.43 1288.56   6
   3  -2   3 2478.25 916.326   4
  -3  -2  -3 180.282 824.274   1
   3  -2   4 68071.0 7752.43   6
  -3  -2  -4 65232.3 8466.60   1
  -3  -2  -5 150140. 14058.4   1
  -3  -2  -6 156803. 15447.2   1
  -3  -1   9 117076. 12059.8   4
  -3  -1   8 168805. 13670.2   4
  -3  -1   7 46125.7 6148.16   4
   3  -1  -6 2641.28 1249.44   6
  -3  -1   6-821.443 859.661   2
  -3  -1   6 2595.45 1335.77   5
  -3  -1   6 1006.48 832.939   4
  -3  -1   5 96247.6 7514.53   5
  -3  -1   5 79230.3 6798.45   4
  -3  -1   5 81248.5 7641.77   2
   3  -1  -5 80741.1 6841.93   6
  -3  -1   4 170145. 9708.16   5
  -3  -1   4 162684. 9411.87   4
  -3  -1   4 172130. 11329.0   2
   3  -1  -4 183382. 10666.8   6
   3  -1  -3 374281. 17055.9   6
  -3  -1   3 369844. 15131.2   5
  -3  -1   3 357717. 14614.6   4
  -3  -1   3 375814. 18170.9   2
  -3  -1   2 181157. 11399.9   2
   3  -1  -2 175390. 10380.4   6
  -3  -1   2 166576. 7802.32   5
  -3  -1   1 63336.0 5811.15   1
   3  -1  -1 52527.0 5372.42   6
   3  -1   0 4302.01 1611.94   6
  -3  -1   0 3546.94 1418.38   1
   3  -1   1 47528.3 2989.36   4
  -3  -1  -1 45202.8 5551.80   1
   3  -1   1 39838.2 4761.15   6
   3  -1   2 276817. 14894.7   6
   3  -1   2 272304. 10936.3   4
  -3  -1  -2 282325. 16206.2   1
   3  -1   3 212466. 12773.0   6
  -3  -1  -3 190032. 13618.9   1
   3  -1   3 183023. 9200.63   4
   3  -1   4 99938.7 8907.83   6
  -3  -1  -4 122357. 11295.2   1
  -3  -1  -5 15248.6 4149.01   1
  -3  -1  -6-212.892 782.497   1
  -3   0   9 3415.48 2440.83   4
  -3   0   8 37099.5 5968.72   5
  -3   0   8 28483.2 5553.56   4
  -3   0   7 85583.2 8637.15   5
  -3   0   7 86283.4 8791.41   4
  -3   0   6 182017. 12164.7   5
  -3   0   6 171374. 11920.8   4
  -3   0   6 181616. 11771.8   2
  -3   0   5 249015. 13576.0   5
  -3   0   5 241866. 13333.4   4
  -3   0   5 227652. 13138.3   2
  -3   0   4 135805. 8602.22   5
  -3   0   4 135446. 8481.60   4
  -3   0   4 126289. 8971.69   2
  -3   0   3 3343.28 1331.64   2
  -3   0   3 825.013 562.711   5
  -3   0   2 84699.3 5266.83   5
   3   0  -2 93341.4 7177.42   6
  -3   0   1 265943. 10186.5   5
  -3   0   1 274630. 13051.3   1
   3   0  -1 279978. 13944.6   6
  -3   0   0 394540. 12632.7   5
  -3   0   0 392319. 17444.0   1
   3   0   0 384006. 17612.9   6
   3   0   1 212917. 7464.85   4
   3   0   1 242952. 12519.1   6
  -3   0  -1 246499. 13133.5   1
   3   0   2 14371.2 2786.58   6
  -3   0  -2 11782.5 2761.17   1
   3   0   3 7702.34 2164.08   6
  -3   0  -3 9223.91 2765.07   1
  -3   0  -4 100942. 9927.19   1
  -3   0  -5 135872. 12646.0   1
  -3   0  -6 136048. 13668.8   1
  -3   0  -7 41557.9 7962.81   1
  -3   1   9 103187. 11185.9   5
  -3   1   9 111653. 11992.9   4
  -3   1   8 166076. 13531.7   5
  -3   1   8 165655. 13995.4   4
  -3   1   7 47823.2 6410.00   5
  -3   1   7 34211.8 5506.83   4
  -3   1   6 734.025 636.700   2
  -3   1   6-131.705 937.008   5
  -3   1   6-267.570 528.857   4
  -3   1   5 83915.5 7396.10   5
  -3   1   5 80419.8 7287.68   4
  -3   1   5 89572.1 6750.70   2
  -3   1   4 171539. 10188.3   5
  -3   1   4 163692. 9738.21   2
  -3   1   3 365941. 16032.2   5
  -3   1   3 373071. 16670.6   2
  -3   1   1 58832.5 4581.39   1
  -3   1   0 4943.65 1491.57   1
   3   1   0 4642.54 1544.43   6
  -3   1  -1 42455.5 4757.06   1
   3   1   1 46484.1 4829.50   6
  -3   1  -2 276062. 14686.7   1
   3   1   2 250763. 13166.0   6
  -3   1  -3 199254. 13107.6   1
   3   1   3 204608. 11458.7   6
  -3   1  -4 102987. 9796.91   1
  -3   1  -5 16708.2 4209.84   1
  -3   1  -6 833.713 1148.21   1
  -3   1  -7 88450.3 11436.9   1
  -3   2   9 2998.22 1860.97   5
  -3   2   8 38307.7 6360.10   5
  -3   2   7 119351. 10799.3   5
  -3   2   6 194234. 13228.7   5
  -3   2   5 194983. 12424.1   5
  -3   2   4 69899.5 6513.11   5
  -3   2   4 86324.3 5858.74   2
  -3   2   3 12300.3 2147.83   2
  -3   2   3 9253.71 2122.83   5
  -3   2   1 217700. 9292.75   1
  -3   2   0 267688. 12201.9   1
  -3   2  -1 185848. 10521.5   1
   3   2   1 190133. 10894.3   6
   3   2   2 21932.4 3191.91   6
  -3   2  -2 15369.6 2938.51   1
  -3   2  -3 3143.75 1459.95   1
  -3   2  -4 61387.8 7377.99   1
  -3   2  -5 125459. 11779.5   1
  -3   2  -6 145291. 13895.3   1
  -3   3   9 77766.3 9870.91   5
  -3   3   8 145931. 13123.8   5
  -3   3   7 38511.4 6055.16   5
  -3   3   6 2999.98 1795.72   5
  -3   3   5 43239.4 5605.50   5
  -3   3   4 125748. 9487.24   5
  -3   3   3 399477. 15790.2   2
  -3   3   0 8320.50 1638.90   1
  -3   3  -1 73500.8 5906.58   1
  -3   3  -2 275924. 14741.9   1
   3   3   2 296249. 14217.4   6
  -3   3  -3 163729. 11525.7   1
  -3   3  -4 71215.8 7984.65   1
  -3   3  -5 1744.98 1251.51   1
  -3   3  -6 3508.42 2176.90   1
  -3   4   8 35213.5 6324.10   5
  -3   4   7 100518. 10394.5   5
  -3   4   6 166271. 12976.8   5
  -3   4   5 163692. 12288.9   5
  -3   4  -1 147839. 8769.46   1
  -3   4  -2 17481.1 3110.41   1
   3   4   2 12778.6 2490.49   6
  -3   4  -3 1310.36 646.443   1
  -3   4  -4 47528.8 6536.61   1
  -3   4  -5 108722. 11097.9   1
  -3   4  -6 115020. 12350.1   1
  -3   5   8 129192. 12987.2   5
  -3   5   7 37737.0 6455.10   5
  -3   5   6 292.157 1141.12   5
  -3   5   5 57881.4 7235.55   5
  -3   5  -3 116246. 9633.16   1
  -3   5  -4 55711.2 7193.92   1
  -3   5  -5 5244.74 2426.94   1
  -3   5  -6 2186.35 1584.31   1
  -3   6   7 50075.8 7834.31   5
  -3   6   6 118949. 11907.1   5
  -3   7   6-453.437 1594.26   5
  -4  -8   4 87416.9 11787.8   2
   4  -8  -3 75365.2 10106.8   6
   4  -8  -3 44527.5 6836.96   3
  -4  -8   3 70944.8 10311.8   2
  -4  -8   2 12365.7 4351.11   2
   4  -8  -2 15710.1 4603.28   6
   4  -8  -2 4669.63 2266.66   3
   4  -8  -1 3073.40 1337.09   6
  -4  -8   1 3107.29 2107.40   2
   4  -8   0 40315.5 8222.44   6
  -4  -8   0 31620.7 6486.95   2
  -4  -7   5 27367.0 6383.09   2
  -4  -7   4 1579.03 1664.77   2
   4  -7  -4 549.882 764.838   6
  -4  -7   3 32890.1 6879.36   2
   4  -7  -3 35781.7 6594.84   6
   4  -7  -3 29801.3 5133.75   3
   4  -7  -2 92799.3 11183.0   6
  -4  -7   2 90607.8 11370.4   2
   4  -7  -2 86427.8 9082.30   3
   4  -7  -1 149983. 14825.1   6
  -4  -7   1 129899. 13653.5   2
   4  -7   0 64784.8 9862.34   6
  -4  -7   0 63655.3 9299.79   2
   4  -7   1 10766.1 3841.06   6
  -4  -7  -1 6717.82 2852.31   2
   4  -7   2 1268.89 1082.05   6
  -4  -7  -2 449.150 1372.65   2
  -4  -6   6 26386.1 6148.73   2
  -4  -6   5 121413. 13266.7   2
   4  -6  -4 132005. 12236.3   6
  -4  -6   4 145740. 14523.2   2
   4  -6  -3 143786. 12996.1   6
  -4  -6   3 123489. 13177.2   2
   4  -6  -3 130329. 10349.1   3
   4  -6  -2 34422.7 6376.08   6
  -4  -6   2 29280.6 6152.19   2
   4  -6  -2 31159.5 4890.96   3
   4  -6  -1 1376.92 1256.90   6
  -4  -6   1 1963.91 1952.06   2
   4  -6   0 57111.5 8613.40   6
  -4  -6   0 66663.6 9270.40   2
   4  -6   1 121956. 13481.0   6
  -4  -6  -1 119216. 12804.7   2
   4  -6   2 163404. 16104.7   6
  -4  -6  -2 141525. 15386.0   1
  -4  -6  -2 139655. 14101.0   2
  -4  -6  -3 65304.0 10454.4   1
   4  -6   3 40805.7 8144.04   6
  -4  -6  -3 51704.1 8373.78   2
  -4  -5   7 132120. 14285.1   2
  -4  -5   6 113134. 12689.7   2
   4  -5  -5 22056.9 4400.37   6
  -4  -5   5 30730.1 6163.26   2
   4  -5  -4 90.8828 866.991   6
  -4  -5   4 1140.50 1471.10   2
   4  -5  -3 48591.0 6855.54   6
  -4  -5   3 46980.4 7473.84   2
   4  -5  -3 33388.0 4557.54   3
   4  -5  -2 141519. 12413.9   6
  -4  -5   2 125123. 12482.1   2
   4  -5  -1 194048. 15183.8   6
  -4  -5   1 167521. 14717.0   2
   4  -5   0 86343.1 10030.8   6
  -4  -5   0 80446.8 9881.01   2
  -4  -5  -1 10885.6 3788.78   1
   4  -5   1 23869.4 5363.94   6
  -4  -5  -1 18434.3 4519.48   2
  -4  -5  -2-3634.49 2387.27   1
   4  -5   2-226.845 1302.31   6
   4  -5   3 42527.9 7853.88   6
  -4  -5  -3 67125.8 10349.5   1
   4  -5   4 118997. 13736.2   6
  -4  -5  -4 141456. 15695.9   1
  -4  -4   8 44159.7 7993.23   2
  -4  -4   7 2457.71 2130.25   2
  -4  -4   6 47911.5 7753.05   2
  -4  -4   5 181473. 14962.7   2
   4  -4  -5 143606. 11540.2   6
  -4  -4   4 150582. 13489.7   2
   4  -4  -4 159515. 12164.4   6
  -4  -4   3 165044. 13706.4   2
   4  -4  -3 127868. 8680.78   3
   4  -4  -3 151852. 11821.6   6
   4  -4  -2 30985.7 5175.11   6
  -4  -4   2 20924.0 4704.52   2
   4  -4  -1 652.936 1275.23   6
  -4  -4   1 3032.53 1871.36   2
   4  -4   0 67506.7 8373.25   6
  -4  -4   0 66794.1 8649.62   2
  -4  -4   0 84483.3 9831.16   1
   4  -4   1 133374. 12486.7   6
  -4  -4  -1 148172. 13749.4   1
   4  -4   2 149393. 13863.8   6
  -4  -4  -2 159636. 14999.6   1
   4  -4   3 77688.2 10077.1   6
  -4  -4  -3 69958.0 10138.6   1
   4  -4   4 14430.3 4528.20   6
  -4  -4  -4 17205.6 5035.70   1
  -4  -3   8 68130.4 9491.70   2
  -4  -3   7 120515. 12362.1   2
  -4  -3   6 146493. 13156.1   2
   4  -3  -6 136448. 10681.7   6
  -4  -3   5 48673.0 7255.22   2
   4  -3  -5 46229.2 6037.09   6
   4  -3  -4 134.634 525.346   6
  -4  -3   4-502.355 1384.51   2
  -4  -3   3 54058.2 7311.61   2
   4  -3  -3 60215.5 6912.53   6
  -4  -3   2 181316. 14137.2   2
   4  -3  -2 179483. 12907.4   6
  -4  -3   1 286615. 18449.1   2
   4  -3  -1 281860. 17167.9   6
   4  -3   0 143897. 11833.4   6
  -4  -3   0 131815. 11930.5   1
   4  -3   1 25741.7 4960.43   6
  -4  -3  -1 16245.5 4194.63   1
   4  -3   2 3329.07 2015.34   6
  -4  -3  -2 2708.90 1060.82   1
   4  -3   3 55972.7 8221.60   6
  -4  -3  -3 75682.2 9960.89   1
   4  -3   4 168758. 14794.6   6
  -4  -3  -4 162450. 15986.3   1
  -4  -3  -5 79024.6 11490.7   1
  -4  -2   9 75659.1 9546.66   4
  -4  -2   8 52615.8 7278.57   4
  -4  -2   7-2161.42 1533.82   2
  -4  -2   7 27.5648 704.761   4
  -4  -2   6 43960.6 5561.00   4
  -4  -2   6 56017.3 7440.62   2
   4  -2  -6 50089.7 6169.93   6
  -4  -2   5 197407. 14403.3   2
   4  -2  -5 184186. 12649.3   6
  -4  -2   4 171686. 13158.2   2
   4  -2  -4 172613. 12042.9   6
  -4  -2   3 201638. 14131.2   2
   4  -2  -3 164888. 11947.6   6
   4  -2  -2 29613.4 4751.33   6
  -4  -2   2 30753.9 5315.62   2
   4  -2  -1 657.622 1177.64   6
  -4  -2   0 91826.9 9115.15   1
   4  -2   0 80608.0 8320.43   6
   4  -2   1 134203. 11463.9   6
  -4  -2  -1 178048. 13567.2   1
   4  -2   2 177863. 13652.4   6
  -4  -2  -2 180540. 14597.9   1
   4  -2   3 77702.0 9150.20   6
  -4  -2  -3 92924.9 10715.1   1
   4  -2   4 12837.5 3724.82   6
  -4  -2  -4 17838.2 4842.72   1
  -4  -2  -5 2993.25 1849.28   1
  -4  -1   9 14632.8 4139.20   4
  -4  -1   8 104613. 10668.7   4
  -4  -1   7 152191. 12175.3   4
  -4  -1   7 154523. 12684.2   2
   4  -1  -7 177656. 12253.6   6
  -4  -1   6 162166. 11406.4   5
  -4  -1   6 149139. 11124.6   4
  -4  -1   6 169526. 12735.9   2
   4  -1  -6 161551. 11697.4   6
   4  -1  -5 30344.5 4780.20   6
  -4  -1   5 32915.4 5243.99   2
  -4  -1   5 33786.7 4436.75   5
  -4  -1   5 35782.3 4538.47   4
   4  -1  -4 270.518 1281.51   6
  -4  -1   4 856.926 773.784   2
  -4  -1   4 1444.08 862.552   5
   4  -1  -3 72567.1 7407.31   6
  -4  -1   3 71433.9 5225.13   5
  -4  -1   3 73734.2 7917.46   2
  -4  -1   2 183775. 13171.9   2
   4  -1  -2 174241. 12134.6   6
  -4  -1   1 274361. 15690.8   1
   4  -1  -1 272850. 15946.8   6
  -4  -1   0 117829. 9893.97   1
   4  -1   0 99268.7 9051.62   6
   4  -1   1 20543.0 4020.75   6
  -4  -1  -1 24776.6 4585.27   1
   4  -1   2 615.220 939.890   6
  -4  -1  -2-467.469 1580.65   1
   4  -1   3 54057.9 7066.49   6
  -4  -1  -3 61220.6 8313.87   1
  -4  -1  -4 152902. 14578.8   1
  -4  -1  -5 101549. 12365.0   1
  -4   0   9 56553.9 8326.04   4
  -4   0   8 51282.6 7291.05   5
  -4   0   8 51200.2 7320.72   4
   4   0  -7-68.6679 1015.79   6
  -4   0   7 168.729 656.686   5
  -4   0   6 33572.7 5011.95   2
  -4   0   6 25686.6 4337.13   5
   4   0  -6 27025.3 4663.31   6
  -4   0   5 174931. 11226.6   5
  -4   0   5 175547. 12211.4   2
   4   0  -5 161027. 11893.6   6
  -4   0   4 213256. 11740.0   5
  -4   0   4 216715. 13768.7   2
   4   0  -4 197325. 13344.9   6
  -4   0   3 246597. 11875.8   5
   4   0  -3 249969. 14999.4   6
  -4   0   3 259470. 15416.5   2
   4   0  -2 62545.7 6789.76   6
   4   0  -1 1282.62 1303.70   6
  -4   0   1 697.614 463.346   1
  -4   0   0 113424. 9216.45   1
   4   0   0 106656. 9153.53   6
  -4   0  -1 206693. 13845.8   1
   4   0   1 201103. 13278.2   6
  -4   0  -2 217372. 14950.9   1
   4   0   2 191700. 13180.9   6
  -4   0  -3 78298.9 9185.78   1
   4   0   3 87892.3 8548.93   6
  -4   0  -4 7065.95 2975.86   1
  -4   0  -5 6967.08 3285.27   1
  -4   1   9 17701.3 4587.14   5
  -4   1   8 91627.7 9938.19   5
  -4   1   7 148367. 12145.6   5
  -4   1   6 162432. 11865.0   5
  -4   1   5 33624.2 4770.21   5
  -4   1   5 47068.7 5438.51   2
  -4   1   4 785.992 598.648   2
  -4   1   4 727.417 528.170   5
  -4   1   3 65299.7 6832.44   2
  -4   1   3 71420.6 5821.74   5
  -4   1   2 184506. 9509.93   5
   4   1  -2 184999. 12646.3   6
  -4   1   1 301629. 14563.2   1
   4   1  -1 287078. 16399.9   6
  -4   1   0 126507. 9094.36   1
   4   1   0 100132. 8849.45   6
   4   1   1 17153.3 3446.40   6
  -4   1  -1 21354.4 3817.22   1
   4   1   2 1149.83 874.127   6
  -4   1  -2 2131.59 1698.19   1
  -4   1  -3 50598.9 7216.52   1
  -4   1  -4 165867. 14568.6   1
  -4   1  -5 93115.8 11372.0   1
  -4   2   8 54105.7 7766.12   5
  -4   2   7 701.014 1124.28   5
  -4   2   6 46718.2 6261.07   5
  -4   2   5 173173. 11892.6   5
  -4   2   4 166235. 11202.7   5
  -4   2   4 201405. 11498.9   2
  -4   2   3 196691. 11878.3   2
  -4   2   3 166612. 10592.4   5
  -4   2   2 35736.2 4054.05   5
   4   2   0 80107.3 7778.44   6
  -4   2  -1 160178. 10861.6   1
   4   2   1 140136. 10605.0   6
  -4   2  -2 174044. 12610.1   1
   4   2   2 165600. 11570.1   6
  -4   2  -3 69912.1 8280.55   1
  -4   2  -4 23549.2 5160.97   1
  -4   2  -5 5459.37 2715.52   1
  -4   3   8 75123.8 9390.93   5
  -4   3   7 126641. 11774.5   5
  -4   3   6 127452. 11065.9   5
  -4   3   5 37006.9 5417.52   5
  -4   3   4 278.037 756.814   5
  -4   3   3 45294.6 5327.31   5
   4   3   1 20798.3 3917.74   6
  -4   3  -2 5265.23 2088.57   1
  -4   3  -3 65058.6 7847.76   1
  -4   3  -4 142070. 12940.6   1
  -4   3  -5 87584.3 10755.8   1
  -4   4   8 35143.0 6519.92   5
  -4   4   7-1539.04 1399.14   5
  -4   4   6 40525.0 6252.99   5
  -4   4   5 145055. 11842.6   5
  -4   4   4 133271. 10842.0   5
   4   4   1 139809. 10846.8   6
  -4   5   7 123330. 12297.4   5
  -4   5   6 107826. 11044.8   5
  -4   5   5 22012.2 4609.52   5
  -4   6   6 23576.4 5291.67   5
  -4   6   5 92762.7 10338.3   5
  -4   7   5 28450.7 5906.26   5
   5  -7  -4 77297.1 10579.5   6
   5  -7  -3 13832.1 4647.90   6
   5  -7  -2 2807.30 1620.64   6
   5  -6  -4 42440.4 7529.11   6
  -5  -6   4 41694.1 8118.60   2
   5  -6  -3 93461.0 11460.5   6
  -5  -6   3 90078.6 11959.5   2
   5  -6  -2 104574. 12607.0   6
  -5  -6   2 118536. 13572.0   2
   5  -6  -1 88749.6 11855.6   6
  -5  -6   1 106091. 12854.1   2
   5  -6   0 22440.5 5987.18   6
  -5  -6   0 13539.3 4369.79   2
  -5  -6  -1 7751.53 3465.60   2
  -5  -5   6 100483. 12613.0   2
   5  -5  -5 97083.4 10906.0   6
  -5  -5   5 126087. 14010.2   2
   5  -5  -4 89686.2 10674.1   6
  -5  -5   4 103869. 12495.5   2
   5  -5  -3 19365.2 5015.95   6
  -5  -5   3 11210.4 4221.24   2
   5  -5  -2 3356.07 1999.65   6
  -5  -5   2 2802.71 2060.17   2
   5  -5  -1 35387.4 6841.86   6
  -5  -5   1 37205.9 7331.77   2
   5  -5   0 92128.4 11726.5   6
  -5  -5   0 72053.1 10557.6   2
  -5  -5  -1 108860. 13251.0   2
   5  -5   1 133009. 14674.3   6
  -5  -5  -2 49549.3 9055.09   1
   5  -5   2 55780.1 9501.02   6
  -5  -5  -2 42032.7 8089.21   2
  -5  -4   7 68670.7 10153.4   2
   5  -4  -6 33081.0 5840.23   6
  -5  -4   6 39400.6 7378.53   2
   5  -4  -5-911.098 1208.63   6
  -5  -4   5 784.979 1128.71   2
  -5  -4   4 72909.3 10004.0   2
   5  -4  -4 55865.3 7962.47   6
  -5  -4   3 124883. 13062.7   2
   5  -4  -3 101331. 11043.4   6
   5  -4  -2 115709. 12020.7   6
  -5  -4   2 136077. 13811.8   2
   5  -4  -1 89294.9 10716.0   6
  -5  -4   1 89131.8 11221.8   2
   5  -4   0 21377.9 5397.39   6
  -5  -4   0 21577.4 5489.65   2
  -5  -4  -1 6023.93 2594.60   1
   5  -4   1 4874.61 2777.30   6
  -5  -4  -2 47998.1 8761.69   1
   5  -4   2 49840.4 8741.16   6
   5  -4   3 80850.8 11375.7   6
  -5  -3   8-366.961 1039.70   2
  -5  -3   7 27951.8 6048.08   2
  -5  -3   6 104187. 11676.2   2
   5  -3  -6 80612.1 9217.72   6
  -5  -3   5 131830. 13189.7   2
   5  -3  -5 118877. 11431.4   6
  -5  -3   4 153901. 14233.8   2
   5  -3  -4 137535. 12523.4   6
   5  -3  -3 33168.7 5868.75   6
  -5  -3   3 32549.6 6216.15   2
   5  -3  -2-769.625 1695.18   6
  -5  -3   2-561.655 888.876   2
  -5  -3   1 58431.9 8741.61   2
   5  -3  -1 68579.7 8915.64   6
   5  -3   0 122149. 12310.9   6
  -5  -3   0 111397. 12104.1   1
   5  -3   1 162748. 14971.0   6
  -5  -3  -1 182108. 16318.8   1
   5  -3   2 57407.6 8774.53   6
  -5  -3  -2 59849.7 9492.02   1
   5  -3   3 11051.3 3658.26   6
  -5  -3  -3 12798.7 4456.77   1
  -5  -2   7 85997.7 10248.3   2
  -5  -2   6 49310.4 7593.51   2
   5  -2  -6 46701.8 6858.57   6
   5  -2  -5 3565.92 1857.17   6
  -5  -2   5 1321.47 1160.75   2
  -5  -2   4 74441.7 9380.84   2
   5  -2  -4 69973.9 8497.21   6
  -5  -2   3 137719. 12978.8   2
   5  -2  -3 126774. 11713.9   6
  -5  -2   2 145696. 13676.5   2
   5  -2  -2 154788. 13093.3   6
   5  -2  -1 107188. 10878.8   6
  -5  -2   0 22642.3 5021.84   1
   5  -2   0 24286.9 5144.36   6
   5  -2   1 2522.88 1751.51   6
  -5  -2  -1 10782.8 3634.76   1
   5  -2   2 41737.2 7243.69   6
  -5  -2  -2 57913.7 8932.25   1
   5  -2   3 92897.4 11185.9   6
  -5  -2  -3 91588.7 11914.2   1
   5  -1  -7 47863.9 6936.61   6
  -5  -1   6 116233. 11386.5   2
   5  -1  -6 120991. 11332.2   6
  -5  -1   5 135804. 12412.5   2
   5  -1  -5 128701. 11742.3   6
  -5  -1   4 135595. 12489.6   2
   5  -1  -4 155052. 12783.4   6
   5  -1  -3 20874.6 4612.65   6
  -5  -1   3 20233.8 4625.10   2
   5  -1  -2 3871.57 1903.99   6
  -5  -1   2 3245.95 2175.78   2
   5  -1  -1 54186.1 7390.52   6
  -5  -1   0 126805. 11627.9   1
   5  -1   0 114971. 11203.1   6
  -5  -1  -1 169173. 14395.8   1
   5  -1   1 146780. 13068.8   6
   5  -1   2 55093.9 8044.02   6
  -5  -1  -2 66731.2 9294.79   1
  -5  -1  -3 10976.4 3953.20   1
  -5  -1  -4 2251.28 1215.39   1
  -5   0   7 67546.1 7904.81   5
   5   0  -7 79146.2 9166.59   6
  -5   0   6 59492.3 6835.85   5
   5   0  -6 59691.2 7922.11   6
   5   0  -5 1752.84 1280.65   6
  -5   0   5 1258.38 992.918   2
  -5   0   4 71408.0 8405.34   2
   5   0  -4 77444.7 8808.36   6
   5   0  -3 141376. 12152.0   6
  -5   0   3 139975. 12419.9   2
   5   0  -2 199671. 14844.2   6
   5   0  -1 129759. 11654.8   6
   5   0   0 31898.9 5582.54   6
  -5   0   0 34028.3 5529.55   1
   5   0   1 7435.66 2600.20   6
  -5   0  -1 10513.5 3216.75   1
  -5   0  -2 64417.2 8792.96   1
   5   0   2 61327.7 8064.65   6
  -5   0  -3 111284. 12446.0   1
  -5   0  -4 81800.0 11197.2   1
   5   1  -8-5211.35 2419.31   6
  -5   1   8 1001.14 1149.75   5
  -5   1   7 31580.4 5525.73   5
   5   1  -7 47621.7 7340.92   6
  -5   1   6 101697. 9435.45   5
   5   1  -6 106984. 11009.4   6
  -5   1   5 139039. 10388.7   5
   5   1  -5 149686. 12900.5   6
   5   1  -4 154643. 13064.6   6
  -5   1   4 154028. 12191.2   2
   5   1  -3 21893.0 4653.05   6
  -5   1   3 21513.3 4471.71   2
   5   1  -2 4317.90 2020.76   6
   5   1  -1 57070.1 7558.07   6
   5   1   0 98362.7 10002.7   6
   5   1   1 153555. 12923.9   6
   5   1   2 60143.2 7725.02   6
  -5   1  -3 5604.16 2661.24   1
  -5   1  -4 2892.14 1354.45   1
  -5   2   8 93363.2 10453.3   5
  -5   2   7 75865.8 8990.12   5
  -5   2   6 42523.2 6122.40   5
  -5   2   5 1588.96 1120.48   5
  -5   2   3 126357. 10899.9   2
   5   2  -3 150731. 12844.3   6
   5   2  -2 130705. 11867.5   6
   5   2  -1 104891. 10423.4   6
   5   2   0 29697.3 5340.10   6
   5   2   1 3798.99 1909.60   6
  -5   3   7 22548.4 4905.32   5
  -5   3   6 77048.9 8715.44   5
  -5   3   5 120839. 10502.9   5
  -5   3   4 145484. 10985.7   5
   5   3  -1 57568.1 7707.24   6
   5   3   0 116292. 11033.5   6
   5   3   1 155884. 12803.5   6
  -5   4   7 64163.1 8654.53   5
  -5   4   6 35856.1 6174.70   5
  -5   4   5 1042.10 738.630   5
  -5   4   4 60463.7 7302.70   5
   5   4   0 18492.8 4387.78   6
  -5   5   6 81244.1 9718.20   5
  -5   5   5 85362.0 9731.69   5
  -5   5   4 97931.0 10040.9   5
   5   5   0 78294.2 9269.33   6
  -5   6   5-1390.96 1314.26   5
  -5   6   4 29090.7 5610.38   5
   6  -4  -4 20035.9 5213.47   6
   6  -4  -3 2275.56 1894.33   6
  -6  -4   3 4912.64 2566.27   2
   6  -4  -2 31897.5 6824.78   6
  -6  -4   2 43572.4 8433.46   2
   6  -3  -6 1427.66 1437.88   6
   6  -3  -5 23853.2 5551.31   6
  -6  -3   5 23625.5 5902.57   2
  -6  -3   4 76075.5 10871.9   2
   6  -3  -4 73917.2 10188.1   6
  -6  -3   3 138479. 14823.9   2
   6  -3  -3 110442. 12761.8   6
  -6  -3   2 114312. 13632.8   2
   6  -3  -2 107754. 12653.2   6
   6  -3  -1 7776.29 3270.80   6
  -6  -3   1 9635.83 4002.60   2
   6  -3   0 729.389 1793.12   6
  -6  -3  -1 34273.0 7262.65   1
  -6  -2   6 115424. 12881.7   2
   6  -2  -6 120225. 12649.4   6
  -6  -2   5 66410.0 9780.57   2
   6  -2  -5 72186.3 9774.52   6
   6  -2  -4 28662.6 6027.77   6
  -6  -2   4 25027.6 5888.04   2
   6  -2  -3 6937.83 2791.09   6
  -6  -2   3 11908.5 4317.44   2
   6  -2  -2 30361.5 6515.81   6
  -6  -2   2 45410.6 8221.05   2
  -6  -2   1 119195. 13752.4   2
   6  -2  -1 98641.3 11990.7   6
   6  -2   0 90100.0 11469.4   6
   6  -2   1 57092.5 9230.44   6
   6  -1  -6 7065.85 3171.21   6
   6  -1  -5 43158.6 7466.81   6
  -6  -1   5 52371.5 8175.72   2
  -6  -1   4 76102.7 10164.0   2
   6  -1  -4 87696.0 10825.3   6
  -6  -1   3 130822. 13632.3   2
   6  -1  -3 124004. 13154.2   6
  -6  -1   2 95035.3 11907.6   2
   6  -1  -2 98848.4 11700.3   6
   6  -1  -1 5069.55 2457.38   6
   6  -1   0 5596.52 2927.19   6
   6  -1   1 26199.7 6085.30   6
   6  -1   2 53653.2 8730.26   6
   6   0  -6 133106. 13473.5   6
   6   0  -5 94261.8 11209.6   6
   6   0  -4 34592.5 6871.05   6
  -6   0   4 41950.9 7099.55   2
   6   0  -3 7431.55 3242.72   6
  -6   0   3 5259.47 2920.58   2
   6   0  -2 35017.4 6879.07   6
  -6   0   2 39298.1 7289.79   2
   6   0  -1 111062. 12370.1   6
   6   0   0 103288. 11993.0   6
   6   0   1 62960.0 9266.86   6
   6   1  -6 1929.98 1348.63   6
   6   1  -5 34462.2 6888.62   6
   6   1  -4 94837.1 11274.8   6
   6   1  -3 115313. 12510.3   6
  -6   1   3 108337. 11769.0   2
   6   1  -2 100642. 11669.9   6
   6   1  -1 6110.58 2869.84   6
   6   1   0 1965.66 1691.41   6
   6   1   1 37627.5 6872.67   6
   6   2  -6 111391. 12697.7   6
   6   2  -5 68139.6 9769.10   6
   6   2  -4 25199.8 5758.10   6
   6   2  -3 9699.54 3449.38   6
   6   2  -2 39220.4 7126.48   6
   6   2  -1 95930.5 11268.0   6
   6   2   0 80352.3 10137.7   6
   6   3  -5 28230.6 6237.19   6
   6   3  -4 68611.3 9943.92   6
   6   3  -3 132772. 13840.8   6
   6   3  -2 106233. 12093.3   6
   6   3  -1 4151.39 2586.84   6
   6   3   0 6624.03 2930.01   6
   6   4  -3 4970.87 2234.66   6
   6   4  -2 36141.6 6992.50   6
   6   4  -1 91761.2 11093.6   6
   0   0   0    0.00    0.00   0
TITL 56021 in P2(1)
REM P2(1) (#4 in standard setting)
CELL 0.71073   4.253525   6.873320   6.324191  90.0000 106.3156  90.0000
ZERR    2.00   0.000225   0.000323   0.000311   0.0000   0.0053   0.0000
LATT -1
SYMM -x, y+1/2,-z
SFAC Li B O P Sr Th
UNIT 2.00 2.00 2.00 2.00 2.00 2.00
TREF
HKLF 4
END
;
_shelx_hkl_checksum              14308
loop_
_space_group_symop_operation_xyz
'x, y, z'
'-x, y+1/2, -z'
'-x, -y, -z'
'x, -y-1/2, z'
loop_
_atom_site_label
_atom_site_type_symbol
_atom_site_fract_x
_atom_site_fract_y
_atom_site_fract_z
_atom_site_U_iso_or_equiv
_atom_site_adp_type
_atom_site_occupancy
_atom_site_site_symmetry_order
_atom_site_calc_flag
_atom_site_refinement_flags_posn
_atom_site_refinement_flags_adp
_atom_site_refinement_flags_occupancy
_atom_site_disorder_assembly
_atom_site_disorder_group
Th1 Th 0.16181(7) 0.2500 1.41293(4) 0.00540(14) Uani 1 2 d S T P . .
O1 O 0.0704(15) 0.2500 0.9922(9) 0.0078(11) Uani 1 2 d S T P . .
O2 O 0.5992(15) 0.2500 1.2151(10) 0.0102(12) Uani 1 2 d S T P . .
O3 O -0.1606(11) 0.0811(7) 0.6420(8) 0.0099(8) Uani 1 1 d . . . . .
O4 O -0.5082(15) 0.2500 0.8120(10) 0.0075(11) Uani 1 2 d S TU P . .
B1 B -0.180(2) 0.2500 0.7765(16) 0.0080(17) Uani 1 2 d S TU P . .
B2 B 0.399(2) 0.2500 1.0065(15) 0.0066(16) Uani 1 2 d S T P . .
loop_
_atom_site_aniso_label
_atom_site_aniso_U_11
_atom_site_aniso_U_22
_atom_site_aniso_U_33
_atom_site_aniso_U_23
_atom_site_aniso_U_13
_atom_site_aniso_U_12
Th1 0.00556(18) 0.00608(18) 0.00505(17) 0.000 0.00228(10) 0.000
O1 0.006(3) 0.015(3) 0.003(2) 0.000 0.003(2) 0.000
O2 0.004(3) 0.018(3) 0.008(3) 0.000 0.002(2) 0.000
O3 0.014(2) 0.006(2) 0.011(2) 0.0004(16) 0.0051(16) -0.0012(16)
O4 0.0064(14) 0.0080(14) 0.0073(14) 0.000 0.0007(9) 0.000
B1 0.0081(19) 0.0085(19) 0.0078(19) 0.000 0.0028(10) 0.000
B2 0.006(4) 0.010(4) 0.004(4) 0.000 0.002(3) 0.000
loop_
_atom_type_symbol
_atom_type_description
_atom_type_scat_dispersion_real
_atom_type_scat_dispersion_imag
_atom_type_scat_source
B B 0.0013 0.0007 'International Tables Vol C Tables 4.2.6.8 and 6.1.1.4'
O O 0.0106 0.0060 'International Tables Vol C Tables 4.2.6.8 and 6.1.1.4'
Th Th -7.2400 8.8979 'International Tables Vol C Tables 4.2.6.8 and 6.1.1.4'
loop_
_geom_angle_atom_site_label_1
_geom_angle_atom_site_label_2
_geom_angle_atom_site_label_3
_geom_angle
_geom_angle_site_symmetry_1
_geom_angle_site_symmetry_3
_geom_angle_publ_flag
O3 Th1 O3 162.7(2) 3_557 2_557 ?
O3 Th1 O2 87.78(12) 3_557 1_455 ?
O3 Th1 O2 87.78(12) 2_557 1_455 ?
O3 Th1 O2 84.01(11) 3_557 . ?
O3 Th1 O2 84.01(11) 2_557 . ?
O2 Th1 O2 121.0(3) 1_455 . ?
O3 Th1 O4 97.36(12) 3_557 1_656 ?
O3 Th1 O4 97.36(12) 2_557 1_656 ?
O2 Th1 O4 136.5(2) 1_455 1_656 ?
O2 Th1 O4 102.5(2) . 1_656 ?
O3 Th1 O3 124.03(12) 3_557 4_566 ?
O3 Th1 O3 69.83(18) 2_557 4_566 ?
O2 Th1 O3 70.96(17) 1_455 4_566 ?
O2 Th1 O3 151.29(12) . 4_566 ?
O4 Th1 O3 70.53(16) 1_656 4_566 ?
O3 Th1 O3 69.83(18) 3_557 1_556 ?
O3 Th1 O3 124.03(12) 2_557 1_556 ?
O2 Th1 O3 70.96(17) 1_455 1_556 ?
O2 Th1 O3 151.29(12) . 1_556 ?
O4 Th1 O3 70.53(16) 1_656 1_556 ?
O3 Th1 O3 54.4(2) 4_566 1_556 ?
O3 Th1 O1 81.43(12) 3_557 . ?
O3 Th1 O1 81.43(12) 2_557 . ?
O2 Th1 O1 67.5(2) 1_455 . ?
O2 Th1 O1 53.5(2) . . ?
O4 Th1 O1 156.0(2) 1_656 . ?
O3 Th1 O1 129.77(15) 4_566 . ?
O3 Th1 O1 129.77(15) 1_556 . ?
O3 Th1 B2 81.86(11) 3_557 . ?
O3 Th1 B2 81.86(11) 2_557 . ?
O2 Th1 B2 94.6(2) 1_455 . ?
O2 Th1 B2 26.5(2) . . ?
O4 Th1 B2 128.9(2) 1_656 . ?
O3 Th1 B2 148.29(14) 4_566 . ?
O3 Th1 B2 148.29(14) 1_556 . ?
O1 Th1 B2 27.1(2) . . ?
O3 Th1 B1 97.62(11) 3_557 1_556 ?
O3 Th1 B1 97.62(11) 2_557 1_556 ?
O2 Th1 B1 76.9(2) 1_455 1_556 ?
O2 Th1 B1 162.1(2) . 1_556 ?
O4 Th1 B1 59.6(2) 1_656 1_556 ?
O3 Th1 B1 28.39(12) 4_566 1_556 ?
O3 Th1 B1 28.39(12) 1_556 1_556 ?
O1 Th1 B1 144.4(2) . 1_556 ?
B2 Th1 B1 171.5(3) . 1_556 ?
O3 Th1 B1 94.33(12) 3_557 1_656 ?
O3 Th1 B1 94.33(12) 2_557 1_656 ?
O2 Th1 B1 164.8(2) 1_455 1_656 ?
O2 Th1 B1 74.2(2) . 1_656 ?
O4 Th1 B1 28.3(2) 1_656 1_656 ?
O3 Th1 B1 95.59(19) 4_566 1_656 ?
O3 Th1 B1 95.59(18) 1_556 1_656 ?
O1 Th1 B1 127.7(2) . 1_656 ?
B2 Th1 B1 100.6(2) . 1_656 ?
B1 Th1 B1 87.9(2) 1_556 1_656 ?
O3 Th1 Th1 36.87(11) 3_557 3_558 ?
O3 Th1 Th1 155.67(11) 2_557 3_558 ?
O2 Th1 Th1 76.64(7) 1_455 3_558 ?
O2 Th1 Th1 120.006(9) . 3_558 ?
O4 Th1 Th1 82.02(7) 1_656 3_558 ?
O3 Th1 Th1 87.28(11) 4_566 3_558 ?
O3 Th1 Th1 32.96(11) 1_556 3_558 ?
O1 Th1 Th1 108.82(6) . 3_558 ?
B2 Th1 Th1 117.50(4) . 3_558 ?
B1 Th1 Th1 60.96(3) 1_556 3_558 ?
B1 Th1 Th1 96.09(9) 1_656 3_558 ?
B2 O1 B1 121.1(6) . . ?
B2 O1 Th1 94.4(5) . . ?
B1 O1 Th1 144.5(5) . . ?
B2 O2 Th1 141.3(5) . 1_655 ?
B2 O2 Th1 97.7(5) . . ?
Th1 O2 Th1 121.0(3) 1_655 . ?
B1 O3 Th1 151.5(4) . 3_557 ?
B1 O3 Th1 95.6(4) . 1_554 ?
Th1 O3 Th1 110.17(18) 3_557 1_554 ?
B2 O4 B1 130.5(7) 1_455 . ?
B2 O4 Th1 131.9(5) 1_455 1_454 ?
B1 O4 Th1 97.6(5) . 1_454 ?
O3 B1 O3 105.8(7) 4_565 . ?
O3 B1 O4 107.5(5) 4_565 . ?
O3 B1 O4 107.5(5) . . ?
O3 B1 O1 113.3(5) 4_565 . ?
O3 B1 O1 113.3(5) . . ?
O4 B1 O1 109.1(7) . . ?
O3 B1 Th1 56.0(4) 4_565 1_554 ?
O3 B1 Th1 56.0(4) . 1_554 ?
O4 B1 Th1 142.0(6) . 1_554 ?
O1 B1 Th1 108.9(5) . 1_554 ?
O3 B1 Th1 75.7(4) 4_565 1_454 ?
O3 B1 Th1 75.7(4) . 1_454 ?
O4 B1 Th1 54.1(4) . 1_454 ?
O1 B1 Th1 163.2(6) . 1_454 ?
Th1 B1 Th1 87.9(2) 1_554 1_454 ?
O2 B2 O1 114.4(7) . . ?
O2 B2 O4 127.1(8) . 1_655 ?
O1 B2 O4 118.5(7) . 1_655 ?
O2 B2 Th1 55.9(4) . . ?
O1 B2 Th1 58.6(4) . . ?
O4 B2 Th1 177.1(6) 1_655 . ?
loop_
_geom_bond_atom_site_label_1
_geom_bond_atom_site_label_2
_geom_bond_distance
_geom_bond_site_symmetry_2
_geom_bond_publ_flag
Th1 O3 2.302(5) 3_557 ?
Th1 O3 2.302(5) 2_557 ?
Th1 O2 2.368(6) 1_455 ?
Th1 O2 2.517(6) . ?
Th1 O4 2.520(6) 1_656 ?
Th1 O3 2.538(4) 4_566 ?
Th1 O3 2.538(4) 1_556 ?
Th1 O1 2.579(6) . ?
Th1 B2 3.013(9) . ?
Th1 B1 3.046(9) 1_556 ?
Th1 B1 3.084(10) 1_656 ?
Th1 Th1 3.9711(3) 3_558 ?
O1 B2 1.375(11) . ?
O1 B1 1.476(11) . ?
O2 B2 1.355(11) . ?
O2 Th1 2.368(6) 1_655 ?
O3 B1 1.455(7) . ?
O3 Th1 2.302(5) 3_557 ?
O3 Th1 2.538(4) 1_554 ?
O4 B2 1.394(11) 1_455 ?
O4 B1 1.475(11) . ?
O4 Th1 2.520(6) 1_454 ?
B1 O3 1.455(7) 4_565 ?
B1 Th1 3.046(9) 1_554 ?
B1 Th1 3.084(10) 1_454 ?
B2 O4 1.394(11) 1_655 ?
loop_
_geom_torsion_atom_site_label_1
_geom_torsion_atom_site_label_2
_geom_torsion_atom_site_label_3
_geom_torsion_atom_site_label_4
_geom_torsion
_geom_torsion_site_symmetry_1
_geom_torsion_site_symmetry_2
_geom_torsion_site_symmetry_3
_geom_torsion_site_symmetry_4
_geom_torsion_publ_flag
Th1 O3 B1 O3 -178.1(4) 3_557 . . 4_565 ?
Th1 O3 B1 O3 27.0(7) 1_554 . . 4_565 ?
Th1 O3 B1 O4 -63.5(12) 3_557 . . . ?
Th1 O3 B1 O4 141.6(5) 1_554 . . . ?
Th1 O3 B1 O1 57.1(13) 3_557 . . . ?
Th1 O3 B1 O1 -97.8(5) 1_554 . . . ?
Th1 O3 B1 Th1 154.9(10) 3_557 . . 1_554 ?
Th1 O3 B1 Th1 -107.9(9) 3_557 . . 1_454 ?
Th1 O3 B1 Th1 97.24(16) 1_554 . . 1_454 ?
B2 O4 B1 O3 -123.2(5) 1_455 . . 4_565 ?
Th1 O4 B1 O3 56.8(5) 1_454 . . 4_565 ?
B2 O4 B1 O3 123.3(5) 1_455 . . . ?
Th1 O4 B1 O3 -56.7(5) 1_454 . . . ?
B2 O4 B1 O1 0.000(5) 1_455 . . . ?
Th1 O4 B1 O1 180.000(2) 1_454 . . . ?
B2 O4 B1 Th1 180.000(4) 1_455 . . 1_554 ?
Th1 O4 B1 Th1 0.000(5) 1_454 . . 1_554 ?
B2 O4 B1 Th1 180.000(5) 1_455 . . 1_454 ?
B2 O1 B1 O3 -60.3(5) . . . 4_565 ?
Th1 O1 B1 O3 119.7(5) . . . 4_565 ?
B2 O1 B1 O3 60.3(5) . . . . ?
Th1 O1 B1 O3 -119.7(5) . . . . ?
B2 O1 B1 O4 180.000(3) . . . . ?
Th1 O1 B1 O4 0.000(6) . . . . ?
B2 O1 B1 Th1 0.000(4) . . . 1_554 ?
Th1 O1 B1 Th1 180.000(4) . . . 1_554 ?
B2 O1 B1 Th1 180.000(10) . . . 1_454 ?
Th1 O1 B1 Th1 0.000(15) . . . 1_454 ?
Th1 O2 B2 O1 180.000(5) 1_655 . . . ?
Th1 O2 B2 O1 0.000(3) . . . . ?
Th1 O2 B2 O4 0.000(9) 1_655 . . 1_655 ?
Th1 O2 B2 O4 180.000(4) . . . 1_655 ?
Th1 O2 B2 Th1 180.000(8) 1_655 . . . ?
B1 O1 B2 O2 180.000(4) . . . . ?
Th1 O1 B2 O2 0.000(3) . . . . ?
B1 O1 B2 O4 0.000(6) . . . 1_655 ?
Th1 O1 B2 O4 180.000(4) . . . 1_655 ?
B1 O1 B2 Th1 180.000(5) . . . . ?
