#------------------------------------------------------------------------------
#$Date: 2016-02-16 18:55:33 +0200 (Tue, 16 Feb 2016) $
#$Revision: 176466 $
#$URL: svn://www.crystallography.net/cod/cif/8/10/34/8103476.cif $
#------------------------------------------------------------------------------
#
# This file is available in the Crystallography Open Database (COD),
# http://www.crystallography.net/
#
# All data on this site have been placed in the public domain by the
# contributors.
#
data_8103476
loop_
_publ_author_name
'Somer, M.'
'Peters, K.'
'Carrillo-Cabrera, W.'
'von Schnering, H.G.'
_publ_section_title
;
 Crystal structure of tribarium phosphide borate, Ba3 P (B O3)
;
_journal_name_full
'Zeitschrift fuer Kristallographie (149,1979-)'
_journal_page_first              449
_journal_page_last               449
_journal_volume                  210
_journal_year                    1995
_chemical_formula_sum            'B Ba3 O3 P'
_chemical_name_systematic        'Ba3 P (B O3)'
_space_group_IT_number           194
_symmetry_space_group_name_Hall  '-P 6c 2c'
_symmetry_space_group_name_H-M   'P 63/m m c'
_cell_angle_alpha                90
_cell_angle_beta                 90
_cell_angle_gamma                120
_cell_formula_units_Z            2
_cell_length_a                   5.502
_cell_length_b                   5.502
_cell_length_c                   13.506
_cell_volume                     354.078
_citation_journal_id_ASTM        ZEKRDZ
_cod_data_source_file            boron0-1_73.cif
_cod_data_source_block           B1Ba3O3P1
_cod_original_cell_volume        354.0776
_cod_original_formula_sum        'B1 Ba3 O3 P1'
_cod_database_code               8103476
loop_
_symmetry_equiv_pos_as_xyz
x,y,z
x-y,x,z+1/2
-y,x-y,z
-x,-y,z+1/2
-x+y,-x,z
y,-x+y,z+1/2
-y,-x,-z+1/2
x-y,-y,-z
x,x-y,-z+1/2
y,x,-z
-x+y,y,-z+1/2
-x,-x+y,-z
-x,-y,-z
-x+y,-x,-z-1/2
y,-x+y,-z
x,y,-z-1/2
x-y,x,-z
-y,x-y,-z-1/2
y,x,z-1/2
-x+y,y,z
-x,-x+y,z-1/2
-y,-x,z
x-y,-y,z-1/2
x,x-y,z
loop_
_atom_site_label
_atom_site_type_symbol
_atom_site_fract_x
_atom_site_fract_y
_atom_site_fract_z
_atom_site_occupancy
_atom_site_U_iso_or_equiv
O1 O-2 0.5198 1.0396 0.25 1 0.0
B1 B+3 0.3333 0.6667 0.75 1 0.0
Ba1 Ba+2 0.3333 0.6667 0.09766 1 0.0
Ba2 Ba+2 0 0 0.25 1 0.0
P1 P-3 0 0 0 1 0.0
