#------------------------------------------------------------------------------
#$Date: 2024-04-18 18:56:43 +0300 (Thu, 18 Apr 2024) $
#$Revision: 291269 $
#$URL: file:///home/coder/svn-repositories/cod/cif/9/00/21/9002152.cif $
#------------------------------------------------------------------------------
#
# This file is available in the Crystallography Open Database (COD),
# http://www.crystallography.net/. The original data for this entry
# were provided the American Mineralogist Crystal Structure Database,
# http://rruff.geo.arizona.edu/AMS/amcsd.php
#
# The file may be used within the scientific community so long as
# proper attribution is given to the journal article from which the
# data were obtained.
#
data_9002152
loop_
_publ_author_name
'Downs, R. T.'
'Yang, H.'
'Hazen, R. M.'
'Finger, L. W.'
'Prewitt, C. T.'
_publ_section_title
;
 Compressibility mechanisms of alkali feldspars: New data from reedmergnerite
 Sample from Joseph Smith #1 mine, Duchesne Co., Utah,  NMNH 140
 P = 4.68 GPa
;
_journal_name_full               'American Mineralogist'
_journal_page_first              333
_journal_page_last               340
_journal_volume                  84
_journal_year                    1999
_chemical_formula_sum            'B Na O8 Si3'
_chemical_name_mineral           Reedmergnerite
_space_group_IT_number           2
_symmetry_space_group_name_Hall  '-P 1 (1/2*x+1/2*y,1/2*x-1/2*y,-z)'
_symmetry_space_group_name_H-M   'C -1'
_cell_angle_alpha                93.373
_cell_angle_beta                 116.303
_cell_angle_gamma                92.345
_cell_length_a                   7.5790
_cell_length_b                   12.2200
_cell_length_c                   6.7141
_cell_formula_units_Z            4
_cell_volume                     554.920
_database_code_amcsd             0002220
_diffrn_ambient_pressure         4.68e+06
_exptl_crystal_density_diffrn    2.945
_cod_original_formula_sum        'Na B Si3 O8'
_cod_database_code               9002152
loop_
_space_group_symop_operation_xyz
x,y,z
1/2+x,1/2+y,z
-x,-y,-z
1/2-x,1/2-y,-z
loop_
_atom_site_aniso_label
_atom_site_aniso_U_11
_atom_site_aniso_U_22
_atom_site_aniso_U_33
_atom_site_aniso_U_12
_atom_site_aniso_U_13
_atom_site_aniso_U_23
Na 0.01377 0.01897 0.02674 0.00038 0.00943 -0.00950
loop_
_atom_site_label
_atom_site_fract_x
_atom_site_fract_y
_atom_site_fract_z
_atom_site_U_iso_or_equiv
Na 0.25337 0.00963 0.12796 ?
B 0.01285 0.15659 0.21969 0.00695
Si1m 0.00552 0.80976 0.20922 0.00716
Si2o 0.69855 0.09793 0.31993 0.00640
Si2m 0.67149 0.86105 0.35165 0.00662
O(A1) 0.00635 0.13328 0.00322 0.01051
O(A2) 0.57477 0.97827 0.26875 0.00783
O(B)o 0.84839 0.08546 0.21643 0.00992
O(B)m 0.80934 0.83253 0.22955 0.01151
O(C)o -0.01161 0.27140 0.26965 0.00880
O(C)m 0.02648 0.67861 0.19360 0.01011
O(D)o 0.20179 0.12226 0.38268 0.01166
O(D)m 0.19451 0.86907 0.41352 0.01317
loop_
_cod_related_entry_id
_cod_related_entry_database
_cod_related_entry_code
1 AMCSD 0002220
